  20  20   0   0
  0.2077006E+02  0.5112815E-09  0.5112816E-09  0.1834919E-08  0.5000000E-15
  1.000000000000000E-004
  CAR 
 unknown system                          
     35.54128693     -8.43394807  301      2.39815248      1.00000000
     -8.434  0.0000E+00  0.0000E+00
     -8.287  0.0000E+00  0.0000E+00
     -8.141  0.0000E+00  0.0000E+00
     -7.994  0.0000E+00  0.0000E+00
     -7.848  0.0000E+00  0.0000E+00
     -7.701  0.0000E+00  0.0000E+00
     -7.554  0.0000E+00  0.0000E+00
     -7.408  0.0000E+00  0.0000E+00
     -7.261  0.0000E+00  0.0000E+00
     -7.115  0.0000E+00  0.0000E+00
     -6.968  0.0000E+00  0.0000E+00
     -6.822  0.0000E+00  0.0000E+00
     -6.675  0.1243E-11  0.1821E-12
     -6.528  0.8880E-03  0.1302E-03
     -6.382  0.2249E+00  0.3310E-01
     -6.235  0.1244E+01  0.2155E+00
     -6.089  0.3081E+00  0.2606E+00
     -5.942  0.1591E+01  0.4939E+00
     -5.795  0.6812E+00  0.5937E+00
     -5.649  0.5380E-01  0.6016E+00
     -5.502  0.2460E+01  0.9623E+00
     -5.356  0.5398E+00  0.1041E+01
     -5.209  0.1606E+01  0.1277E+01
     -5.063  0.7068E+00  0.1380E+01
     -4.916  0.2894E+01  0.1805E+01
     -4.769  0.3443E+01  0.2309E+01
     -4.623  0.7117E-01  0.2320E+01
     -4.476  0.3049E+01  0.2767E+01
     -4.330  0.8411E+00  0.2890E+01
     -4.183  0.4196E+01  0.3505E+01
     -4.036  0.2594E+01  0.3885E+01
     -3.890  0.3712E+01  0.4429E+01
     -3.743  0.3748E+01  0.4979E+01
     -3.597  0.1380E+01  0.5181E+01
     -3.450  0.4387E+01  0.5824E+01
     -3.304  0.4113E+01  0.6427E+01
     -3.157  0.5435E+01  0.7224E+01
     -3.010  0.3554E+01  0.7745E+01
     -2.864  0.5839E+01  0.8601E+01
     -2.717  0.3477E+01  0.9110E+01
     -2.571  0.1172E+02  0.1083E+02
     -2.424  0.8997E+01  0.1215E+02
     -2.277  0.1199E+02  0.1390E+02
     -2.131  0.1734E+02  0.1645E+02
     -1.984  0.1955E+02  0.1931E+02
     -1.838  0.1965E+02  0.2219E+02
     -1.691  0.3406E+02  0.2719E+02
     -1.544  0.3218E+02  0.3190E+02
     -1.398  0.3822E+02  0.3751E+02
     -1.251  0.3215E+02  0.4222E+02
     -1.105  0.3255E+02  0.4699E+02
     -0.958  0.4775E+02  0.5399E+02
     -0.812  0.5004E+02  0.6133E+02
     -0.665  0.5426E+02  0.6928E+02
     -0.518  0.5507E+02  0.7735E+02
     -0.372  0.7848E+02  0.8886E+02
     -0.225  0.8079E+02  0.1007E+03
     -0.079  0.6141E+02  0.1097E+03
      0.068  0.5650E+02  0.1180E+03
      0.215  0.7125E+02  0.1284E+03
      0.361  0.7260E+02  0.1391E+03
      0.508  0.7701E+02  0.1504E+03
      0.654  0.7704E+02  0.1616E+03
      0.801  0.7215E+02  0.1722E+03
      0.947  0.3256E+02  0.1770E+03
      1.094  0.2667E+02  0.1809E+03
      1.241  0.1860E+02  0.1836E+03
      1.387  0.2894E+02  0.1879E+03
      1.534  0.2272E+02  0.1912E+03
      1.680  0.1908E+02  0.1940E+03
      1.827  0.2515E+02  0.1977E+03
      1.974  0.1640E+02  0.2001E+03
      2.120  0.2773E+02  0.2042E+03
      2.267  0.2749E+02  0.2082E+03
      2.413  0.2805E+02  0.2123E+03
      2.560  0.2125E+02  0.2154E+03
      2.706  0.1208E+02  0.2172E+03
      2.853  0.1169E+02  0.2189E+03
      3.000  0.5224E+01  0.2197E+03
      3.146  0.8457E+01  0.2209E+03
      3.293  0.7791E+01  0.2220E+03
      3.439  0.6375E+01  0.2230E+03
      3.586  0.1088E+02  0.2246E+03
      3.733  0.7728E+01  0.2257E+03
      3.879  0.5168E+01  0.2265E+03
      4.026  0.7536E+01  0.2276E+03
      4.172  0.6451E+00  0.2277E+03
      4.319  0.1077E+02  0.2292E+03
      4.465  0.8627E+01  0.2305E+03
      4.612  0.4896E+01  0.2312E+03
      4.759  0.4068E+01  0.2318E+03
      4.905  0.1858E+01  0.2321E+03
      5.052  0.7934E+01  0.2333E+03
      5.198  0.4964E+01  0.2340E+03
      5.345  0.1123E+02  0.2356E+03
      5.492  0.6752E+01  0.2366E+03
      5.638  0.2714E+01  0.2370E+03
      5.785  0.2276E+01  0.2374E+03
      5.931  0.1638E+01  0.2376E+03
      6.078  0.2700E+01  0.2380E+03
      6.224  0.7747E+01  0.2391E+03
      6.371  0.7584E+01  0.2402E+03
      6.518  0.5801E+01  0.2411E+03
      6.664  0.1961E+01  0.2414E+03
      6.811  0.1777E+01  0.2416E+03
      6.957  0.6760E+01  0.2426E+03
      7.104  0.5313E+01  0.2434E+03
      7.251  0.6941E+01  0.2444E+03
      7.397  0.7820E+01  0.2456E+03
      7.544  0.7210E+01  0.2466E+03
      7.690  0.3443E+01  0.2471E+03
      7.837  0.4548E+01  0.2478E+03
      7.983  0.7335E+01  0.2489E+03
      8.130  0.5370E+01  0.2497E+03
      8.277  0.9881E+01  0.2511E+03
      8.423  0.1196E+02  0.2529E+03
      8.570  0.1037E+02  0.2544E+03
      8.716  0.8508E+01  0.2556E+03
      8.863  0.1134E+02  0.2573E+03
      9.010  0.5045E+01  0.2580E+03
      9.156  0.1062E+02  0.2596E+03
      9.303  0.8585E+01  0.2608E+03
      9.449  0.7940E+01  0.2620E+03
      9.596  0.7697E+01  0.2631E+03
      9.742  0.9396E+01  0.2645E+03
      9.889  0.9054E+01  0.2658E+03
     10.036  0.6362E+01  0.2668E+03
     10.182  0.6928E+01  0.2678E+03
     10.329  0.9554E+01  0.2692E+03
     10.475  0.7837E+01  0.2703E+03
     10.622  0.5635E+01  0.2712E+03
     10.769  0.7181E+01  0.2722E+03
     10.915  0.9040E+01  0.2735E+03
     11.062  0.9129E+01  0.2749E+03
     11.208  0.1069E+02  0.2764E+03
     11.355  0.1327E+02  0.2784E+03
     11.501  0.6779E+01  0.2794E+03
     11.648  0.8486E+01  0.2806E+03
     11.795  0.6245E+01  0.2815E+03
     11.941  0.8451E+01  0.2828E+03
     12.088  0.1651E+02  0.2852E+03
     12.234  0.1015E+02  0.2867E+03
     12.381  0.1153E+02  0.2884E+03
     12.528  0.1038E+02  0.2899E+03
     12.674  0.1061E+02  0.2915E+03
     12.821  0.8946E+01  0.2928E+03
     12.967  0.9971E+01  0.2942E+03
     13.114  0.9256E+01  0.2956E+03
     13.261  0.1749E+02  0.2982E+03
     13.407  0.9920E+01  0.2996E+03
     13.554  0.8286E+01  0.3008E+03
     13.700  0.1570E+02  0.3031E+03
     13.847  0.1531E+02  0.3054E+03
     13.993  0.1311E+02  0.3073E+03
     14.140  0.4699E+01  0.3080E+03
     14.287  0.1117E+02  0.3096E+03
     14.433  0.7226E+01  0.3107E+03
     14.580  0.9868E+01  0.3121E+03
     14.726  0.8373E+01  0.3134E+03
     14.873  0.1512E+02  0.3156E+03
     15.020  0.9606E+01  0.3170E+03
     15.166  0.1012E+02  0.3185E+03
     15.313  0.1464E+02  0.3206E+03
     15.459  0.1754E+02  0.3232E+03
     15.606  0.1425E+02  0.3253E+03
     15.752  0.1352E+02  0.3272E+03
     15.899  0.5612E+01  0.3281E+03
     16.046  0.1363E+02  0.3301E+03
     16.192  0.1235E+02  0.3319E+03
     16.339  0.6574E+01  0.3328E+03
     16.485  0.1210E+02  0.3346E+03
     16.632  0.1345E+02  0.3366E+03
     16.779  0.1591E+02  0.3389E+03
     16.925  0.1521E+02  0.3411E+03
     17.072  0.1522E+02  0.3434E+03
     17.218  0.1241E+02  0.3452E+03
     17.365  0.1428E+02  0.3473E+03
     17.511  0.9591E+01  0.3487E+03
     17.658  0.1175E+02  0.3504E+03
     17.805  0.1671E+02  0.3529E+03
     17.951  0.1229E+02  0.3547E+03
     18.098  0.1552E+02  0.3569E+03
     18.244  0.1009E+02  0.3584E+03
     18.391  0.1284E+02  0.3603E+03
     18.538  0.1184E+02  0.3620E+03
     18.684  0.9344E+01  0.3634E+03
     18.831  0.1798E+02  0.3660E+03
     18.977  0.6100E+01  0.3669E+03
     19.124  0.1201E+02  0.3687E+03
     19.270  0.1653E+02  0.3711E+03
     19.417  0.1372E+02  0.3731E+03
     19.564  0.1176E+02  0.3749E+03
     19.710  0.1580E+02  0.3772E+03
     19.857  0.8098E+01  0.3784E+03
     20.003  0.6993E+01  0.3794E+03
     20.150  0.7438E+01  0.3805E+03
     20.297  0.1153E+02  0.3822E+03
     20.443  0.6003E+01  0.3830E+03
     20.590  0.1430E+02  0.3851E+03
     20.736  0.1848E+02  0.3879E+03
     20.883  0.6315E+01  0.3888E+03
     21.029  0.1319E+02  0.3907E+03
     21.176  0.1175E+02  0.3924E+03
     21.323  0.1663E+02  0.3949E+03
     21.469  0.1575E+02  0.3972E+03
     21.616  0.8269E+01  0.3984E+03
     21.762  0.1359E+02  0.4004E+03
     21.909  0.9212E+01  0.4017E+03
     22.056  0.1324E+02  0.4037E+03
     22.202  0.2030E+02  0.4067E+03
     22.349  0.1578E+02  0.4090E+03
     22.495  0.1020E+02  0.4105E+03
     22.642  0.1650E+02  0.4129E+03
     22.788  0.1362E+02  0.4149E+03
     22.935  0.1129E+02  0.4165E+03
     23.082  0.1220E+02  0.4183E+03
     23.228  0.1974E+02  0.4212E+03
     23.375  0.1360E+02  0.4232E+03
     23.521  0.1885E+02  0.4260E+03
     23.668  0.1733E+02  0.4285E+03
     23.815  0.1541E+02  0.4308E+03
     23.961  0.1639E+02  0.4332E+03
     24.108  0.1596E+02  0.4355E+03
     24.254  0.1773E+02  0.4381E+03
     24.401  0.1311E+02  0.4400E+03
     24.547  0.1308E+02  0.4420E+03
     24.694  0.1108E+02  0.4436E+03
     24.841  0.1395E+02  0.4456E+03
     24.987  0.1195E+02  0.4474E+03
     25.134  0.2104E+02  0.4505E+03
     25.280  0.2204E+02  0.4537E+03
     25.427  0.1576E+02  0.4560E+03
     25.574  0.1735E+02  0.4585E+03
     25.720  0.1562E+02  0.4608E+03
     25.867  0.1286E+02  0.4627E+03
     26.013  0.1505E+02  0.4649E+03
     26.160  0.1772E+02  0.4675E+03
     26.306  0.1387E+02  0.4696E+03
     26.453  0.1695E+02  0.4720E+03
     26.600  0.1674E+02  0.4745E+03
     26.746  0.8193E+01  0.4757E+03
     26.893  0.1068E+02  0.4773E+03
     27.039  0.1766E+02  0.4798E+03
     27.186  0.1749E+02  0.4824E+03
     27.333  0.7757E+01  0.4835E+03
     27.479  0.1903E+02  0.4863E+03
     27.626  0.1253E+02  0.4882E+03
     27.772  0.1102E+02  0.4898E+03
     27.919  0.1489E+02  0.4920E+03
     28.065  0.1137E+02  0.4936E+03
     28.212  0.1272E+02  0.4955E+03
     28.359  0.1786E+02  0.4981E+03
     28.505  0.1588E+02  0.5004E+03
     28.652  0.1515E+02  0.5027E+03
     28.798  0.1576E+02  0.5050E+03
     28.945  0.1689E+02  0.5075E+03
     29.092  0.1496E+02  0.5096E+03
     29.238  0.1064E+02  0.5112E+03
     29.385  0.1175E+02  0.5129E+03
     29.531  0.1478E+02  0.5151E+03
     29.678  0.2327E+02  0.5185E+03
     29.825  0.1772E+02  0.5211E+03
     29.971  0.1709E+02  0.5236E+03
     30.118  0.2279E+02  0.5269E+03
     30.264  0.1441E+02  0.5291E+03
     30.411  0.1254E+02  0.5309E+03
     30.557  0.1404E+02  0.5330E+03
     30.704  0.1326E+02  0.5349E+03
     30.851  0.1075E+02  0.5365E+03
     30.997  0.1562E+02  0.5388E+03
     31.144  0.1870E+02  0.5415E+03
     31.290  0.7111E+01  0.5426E+03
     31.437  0.2193E+02  0.5458E+03
     31.584  0.2253E+02  0.5491E+03
     31.730  0.1882E+02  0.5518E+03
     31.877  0.1604E+02  0.5542E+03
     32.023  0.1937E+02  0.5570E+03
     32.170  0.1932E+02  0.5598E+03
     32.316  0.1173E+02  0.5616E+03
     32.463  0.1297E+02  0.5635E+03
     32.610  0.1699E+02  0.5660E+03
     32.756  0.1273E+02  0.5678E+03
     32.903  0.1400E+02  0.5699E+03
     33.049  0.1734E+02  0.5724E+03
     33.196  0.1386E+02  0.5745E+03
     33.343  0.1473E+01  0.5747E+03
     33.489  0.4170E+01  0.5753E+03
     33.636  0.4907E+01  0.5760E+03
     33.782  0.6871E-02  0.5760E+03
     33.929  0.6322E-11  0.5760E+03
     34.075  0.0000E+00  0.5760E+03
     34.222  0.0000E+00  0.5760E+03
     34.369  0.0000E+00  0.5760E+03
     34.515  0.0000E+00  0.5760E+03
     34.662  0.0000E+00  0.5760E+03
     34.808  0.0000E+00  0.5760E+03
     34.955  0.0000E+00  0.5760E+03
     35.102  0.0000E+00  0.5760E+03
     35.248  0.0000E+00  0.5760E+03
     35.395  0.0000E+00  0.5760E+03
     35.541  0.0000E+00  0.5760E+03
