  20   20    1    1
  4.1540126e+02   5.1128150e-10   5.1128155e-10   1.8349194e-09   5.0000000e-16
            1.000000e-04
  CAR
 DOS and projected DOS file by LOBSTER. Energy is shifted such that the Fermi level lies at 0 eV. 
     14.41245522     -27.63760437   841       2.39815248       1.00000000
-30.03576   0.00000   0.00000
-29.98570   0.00000   0.00000
-29.93564   0.00000   0.00000
-29.88558   0.00000   0.00000
-29.83552   0.00000   0.00000
-29.78546   0.00000   0.00000
-29.73540   0.00000   0.00000
-29.68534   0.00000   0.00000
-29.63528   0.00000   0.00000
-29.58522   0.00000   0.00000
-29.53516   0.00000   0.00000
-29.48510   0.00000   0.00000
-29.43504   0.00000   0.00000
-29.38498   0.00000   0.00000
-29.33492   0.00000   0.00000
-29.28486   0.00000   0.00000
-29.23480   0.00000   0.00000
-29.18474   0.00000   0.00000
-29.13468   0.00000   0.00000
-29.08462   0.00000   0.00000
-29.03456   0.00000   0.00000
-28.98451   0.00000   0.00000
-28.93445   0.00000   0.00000
-28.88439   0.00000   0.00000
-28.83433   0.00000   0.00000
-28.78427   0.00000   0.00000
-28.73421   0.00000   0.00000
-28.68415   0.00000   0.00000
-28.63409   0.00000   0.00000
-28.58403   0.00000   0.00000
-28.53397   0.00000   0.00000
-28.48391   0.00000   0.00000
-28.43385   0.00000   0.00000
-28.38379   0.00000   0.00000
-28.33373   0.00000   0.00000
-28.28367   0.00000   0.00000
-28.23361   0.00000   0.00000
-28.18355   0.00000   0.00000
-28.13349   0.00000   0.00000
-28.08343   0.00000   0.00000
-28.03337   0.00000   0.00000
-27.98331   0.00000   0.00000
-27.93325   0.00000   0.00000
-27.88319   0.00000   0.00000
-27.83313   0.00000   0.00000
-27.78308   0.00000   0.00000
-27.73302   0.00000   0.00000
-27.68296   0.00000   0.00000
-27.63290   0.00000   0.00000
-27.58284   0.00000   0.00000
-27.53278   0.00000   0.00000
-27.48272   0.00000   0.00000
-27.43266   0.00000   0.00000
-27.38260   0.00000   0.00000
-27.33254   0.00000   0.00000
-27.28248   0.00000   0.00000
-27.23242   0.00000   0.00000
-27.18236   0.00000   0.00000
-27.13230   0.00000   0.00000
-27.08224   0.00000   0.00000
-27.03218   0.00000   0.00000
-26.98212   0.00000   0.00000
-26.93206   0.00000   0.00000
-26.88200   0.00000   0.00000
-26.83194   0.00000   0.00000
-26.78188   0.00000   0.00000
-26.73182   0.00000   0.00000
-26.68176   0.00000   0.00000
-26.63170   0.00000   0.00000
-26.58164   0.00000   0.00000
-26.53159   0.00000   0.00000
-26.48153   0.00000   0.00000
-26.43147   0.00000   0.00000
-26.38141   0.00000   0.00000
-26.33135   0.00000   0.00000
-26.28129   0.00000   0.00000
-26.23123   0.00000   0.00000
-26.18117   0.00000   0.00000
-26.13111   0.00000   0.00000
-26.08105   0.00000   0.00000
-26.03099   0.00000   0.00000
-25.98093   0.00000   0.00000
-25.93087   0.00000   0.00000
-25.88081   0.00000   0.00000
-25.83075   0.00000   0.00000
-25.78069   0.00000   0.00000
-25.73063   0.00000   0.00000
-25.68057   0.00000   0.00000
-25.63051   0.00000   0.00000
-25.58045   0.00000   0.00000
-25.53039   0.00000   0.00000
-25.48033   0.00000   0.00000
-25.43027   0.00000   0.00000
-25.38021   0.00000   0.00000
-25.33015   0.00000   0.00000
-25.28010   0.00000   0.00000
-25.23004   0.00000   0.00000
-25.17998   0.00000   0.00000
-25.12992   0.00000   0.00000
-25.07986   0.00000   0.00000
-25.02980   0.00000   0.00000
-24.97974   0.00000   0.00000
-24.92968   0.00000   0.00000
-24.87962   0.00000   0.00000
-24.82956   0.00000   0.00000
-24.77950   0.00000   0.00000
-24.72944   0.00000   0.00000
-24.67938   0.00000   0.00000
-24.62932   0.00000   0.00000
-24.57926   0.00000   0.00000
-24.52920   0.00000   0.00000
-24.47914   0.00000   0.00000
-24.42908   0.00000   0.00000
-24.37902   0.00000   0.00000
-24.32896   0.00000   0.00000
-24.27890   0.00000   0.00000
-24.22884   0.00000   0.00000
-24.17878   0.00000   0.00000
-24.12872   0.00000   0.00000
-24.07867   0.00000   0.00000
-24.02861   0.00000   0.00000
-23.97855   0.00000   0.00000
-23.92849   0.00000   0.00000
-23.87843   0.00000   0.00000
-23.82837   0.00000   0.00000
-23.77831   0.00000   0.00000
-23.72825   0.00000   0.00000
-23.67819   0.00000   0.00000
-23.62813   0.00000   0.00000
-23.57807   0.00000   0.00000
-23.52801   0.00000   0.00000
-23.47795   0.00000   0.00000
-23.42789   0.00000   0.00000
-23.37783   0.00000   0.00000
-23.32777   0.00000   0.00000
-23.27771   0.00000   0.00000
-23.22765   0.00000   0.00000
-23.17759   0.00000   0.00000
-23.12753   0.00000   0.00000
-23.07747   0.00000   0.00000
-23.02741   0.00000   0.00000
-22.97735   0.00000   0.00000
-22.92729   0.00000   0.00000
-22.87723   0.00000   0.00000
-22.82718   0.00000   0.00000
-22.77712   0.00000   0.00000
-22.72706   0.00000   0.00000
-22.67700   0.00000   0.00000
-22.62694   0.00000   0.00000
-22.57688   0.00000   0.00000
-22.52682   0.00000   0.00000
-22.47676   0.00000   0.00000
-22.42670   0.00000   0.00000
-22.37664   0.00000   0.00000
-22.32658   0.00000   0.00000
-22.27652   0.00000   0.00000
-22.22646   0.00000   0.00000
-22.17640   0.00000   0.00000
-22.12634   0.00000   0.00000
-22.07628   0.00000   0.00000
-22.02622   0.00000   0.00000
-21.97616   0.00000   0.00000
-21.92610   0.00000   0.00000
-21.87604   0.00000   0.00000
-21.82598   0.00000   0.00000
-21.77592   0.00000   0.00000
-21.72586   0.00000   0.00000
-21.67580   0.00000   0.00000
-21.62574   0.00000   0.00000
-21.57569   0.00000   0.00000
-21.52563   0.00000   0.00000
-21.47557   0.00000   0.00000
-21.42551   0.00000   0.00000
-21.37545   0.00000   0.00000
-21.32539   0.00000   0.00000
-21.27533   0.00000   0.00000
-21.22527   0.00000   0.00000
-21.17521   0.00000   0.00000
-21.12515   0.00000   0.00000
-21.07509   0.00000   0.00000
-21.02503   0.00000   0.00000
-20.97497   0.00000   0.00000
-20.92491   0.00000   0.00000
-20.87485   0.00000   0.00000
-20.82479   0.00000   0.00000
-20.77473   0.00000   0.00000
-20.72467   0.00000   0.00000
-20.67461   0.00000   0.00000
-20.62455   0.00000   0.00000
-20.57449   0.00000   0.00000
-20.52443   0.00000   0.00000
-20.47437   0.00000   0.00000
-20.42431   0.00000   0.00000
-20.37426   0.00000   0.00000
-20.32420   0.00000   0.00000
-20.27414   0.00000   0.00000
-20.22408   0.00000   0.00000
-20.17402   0.00000   0.00000
-20.12396   0.00000   0.00000
-20.07390   0.00000   0.00000
-20.02384   0.00000   0.00000
-19.97378   0.00000   0.00000
-19.92372   0.00000   0.00000
-19.87366   0.00000   0.00000
-19.82360   0.00000   0.00000
-19.77354   0.00000   0.00000
-19.72348   0.00000   0.00000
-19.67342   0.00000   0.00000
-19.62336   0.00000   0.00000
-19.57330   0.00000   0.00000
-19.52324   0.00000   0.00000
-19.47318   0.00000   0.00000
-19.42312   0.00000   0.00000
-19.37306   0.00000   0.00000
-19.32300   0.00000   0.00000
-19.27294   0.00000   0.00000
-19.22288   0.00000   0.00000
-19.17282   0.00000   0.00000
-19.12277   0.00000   0.00000
-19.07271   0.00000   0.00000
-19.02265   0.00000   0.00000
-18.97259   0.00000   0.00000
-18.92253   0.00000   0.00000
-18.87247   0.00000   0.00000
-18.82241   0.00000   0.00000
-18.77235   0.00000   0.00000
-18.72229   0.00000   0.00000
-18.67223   0.00000   0.00000
-18.62217   0.00000   0.00000
-18.57211   0.00000   0.00000
-18.52205   0.00000   0.00000
-18.47199   0.00000   0.00000
-18.42193   0.00000   0.00000
-18.37187   0.00000   0.00000
-18.32181   0.00000   0.00000
-18.27175   0.00000   0.00000
-18.22169   0.00000   0.00000
-18.17163   0.00000   0.00000
-18.12157   0.00000   0.00000
-18.07151   0.00000   0.00000
-18.02145   0.00000   0.00000
-17.97139   0.00000   0.00000
-17.92133   0.00000   0.00000
-17.87128   0.00000   0.00000
-17.82122   0.00000   0.00000
-17.77116   0.00000   0.00000
-17.72110   0.00000   0.00000
-17.67104   0.00000   0.00000
-17.62098   0.00000   0.00000
-17.57092   0.00000   0.00000
-17.52086   0.00000   0.00000
-17.47080   0.00000   0.00000
-17.42074   0.00000   0.00000
-17.37068   0.00000   0.00000
-17.32062   0.00000   0.00000
-17.27056   0.00000   0.00000
-17.22050   0.00000   0.00000
-17.17044   0.00000   0.00000
-17.12038   0.00000   0.00000
-17.07032   0.00000   0.00000
-17.02026   0.00000   0.00000
-16.97020   0.00000   0.00000
-16.92014   0.00000   0.00000
-16.87008   0.00000   0.00000
-16.82002   0.00000   0.00000
-16.76996   0.00000   0.00000
-16.71990   0.00000   0.00000
-16.66985   0.00000   0.00000
-16.61979   0.00000   0.00000
-16.56973   0.00000   0.00000
-16.51967   0.00000   0.00000
-16.46961   0.00000   0.00000
-16.41955   0.00000   0.00000
-16.36949   0.00000   0.00000
-16.31943   0.00000   0.00000
-16.26937   0.00000   0.00000
-16.21931   0.00000   0.00000
-16.16925   0.00000   0.00000
-16.11919   0.00000   0.00000
-16.06913   0.00000   0.00000
-16.01907   0.00000   0.00000
-15.96901   0.00000   0.00000
-15.91895   0.00000   0.00000
-15.86889   0.00000   0.00000
-15.81883   0.00000   0.00000
-15.76877   0.00000   0.00000
-15.71871   0.00000   0.00000
-15.66865   0.00000   0.00000
-15.61859   0.00000   0.00000
-15.56853   0.00000   0.00000
-15.51847   0.00000   0.00000
-15.46841   0.00000   0.00000
-15.41836   0.00000   0.00000
-15.36830   0.00000   0.00000
-15.31824   0.00000   0.00000
-15.26818   0.00000   0.00000
-15.21812   0.00000   0.00000
-15.16806   0.00000   0.00000
-15.11800   0.00000   0.00000
-15.06794   0.00000   0.00000
-15.01788   0.00000   0.00000
-14.96782   0.00000   0.00000
-14.91776   0.00000   0.00000
-14.86770   0.00000   0.00000
-14.81764   0.00000   0.00000
-14.76758   0.00000   0.00000
-14.71752   0.00000   0.00000
-14.66746   0.00000   0.00000
-14.61740   0.00000   0.00000
-14.56734   0.00000   0.00000
-14.51728   0.00000   0.00000
-14.46722   0.00000   0.00000
-14.41716   0.00000   0.00000
-14.36710   0.00000   0.00000
-14.31704   0.00000   0.00000
-14.26698   0.00000   0.00000
-14.21692   0.00000   0.00000
-14.16687   0.00000   0.00000
-14.11681   0.00000   0.00000
-14.06675   0.00000   0.00000
-14.01669   0.00000   0.00000
-13.96663   0.00000   0.00000
-13.91657   0.00000   0.00000
-13.86651   0.00000   0.00000
-13.81645   0.00000   0.00000
-13.76639   0.00000   0.00000
-13.71633   0.00000   0.00000
-13.66627   0.00000   0.00000
-13.61621   0.00000   0.00000
-13.56615   0.00000   0.00000
-13.51609   0.00000   0.00000
-13.46603   0.00000   0.00000
-13.41597   0.00000   0.00000
-13.36591   0.00000   0.00000
-13.31585   0.00000   0.00000
-13.26579   0.00000   0.00000
-13.21573   0.00000   0.00000
-13.16567   0.00000   0.00000
-13.11561   0.00000   0.00000
-13.06555   0.00000   0.00000
-13.01549   0.00000   0.00000
-12.96544   0.00000   0.00000
-12.91538   0.00000   0.00000
-12.86532   0.00000   0.00000
-12.81526   0.00000   0.00000
-12.76520   0.00000   0.00000
-12.71514   0.00000   0.00000
-12.66508   0.00000   0.00000
-12.61502   0.00000   0.00000
-12.56496   0.00000   0.00000
-12.51490   0.00000   0.00000
-12.46484   0.00000   0.00000
-12.41478   0.00000   0.00000
-12.36472   0.00000   0.00000
-12.31466   0.00000   0.00000
-12.26460   0.00000   0.00000
-12.21454   0.00000   0.00000
-12.16448   0.00000   0.00000
-12.11442   0.00000   0.00000
-12.06436   0.00000   0.00000
-12.01430   0.00000   0.00000
-11.96424   0.00000   0.00000
-11.91418   0.00000   0.00000
-11.86412   0.00000   0.00000
-11.81406   0.00000   0.00000
-11.76400   0.00000   0.00000
-11.71395   0.00000   0.00000
-11.66389   0.00000   0.00000
-11.61383   0.00000   0.00000
-11.56377   0.00000   0.00000
-11.51371   0.00000   0.00000
-11.46365   0.00000   0.00000
-11.41359   0.00000   0.00000
-11.36353   0.00000   0.00000
-11.31347   0.00000   0.00000
-11.26341   0.00000   0.00000
-11.21335   0.00000   0.00000
-11.16329   0.00000   0.00000
-11.11323   0.00000   0.00000
-11.06317   0.00000   0.00000
-11.01311   0.00000   0.00000
-10.96305   0.00000   0.00000
-10.91299   0.00000   0.00000
-10.86293   0.00000   0.00000
-10.81287   0.00000   0.00000
-10.76281   0.00000   0.00000
-10.71275   0.00000   0.00000
-10.66269   0.00000   0.00000
-10.61263   0.00000   0.00000
-10.56257   0.00000   0.00000
-10.51251   0.00000   0.00000
-10.46246   0.00000   0.00000
-10.41240   0.00000   0.00000
-10.36234   0.00000   0.00000
-10.31228   0.00000   0.00000
-10.26222   0.00000   0.00000
-10.21216   0.00000   0.00000
-10.16210   0.00000   0.00000
-10.11204   0.00000   0.00000
-10.06198   0.00000   0.00000
-10.01192   0.00000   0.00000
 -9.96186   0.00000   0.00000
 -9.91180   0.00000   0.00000
 -9.86174   0.00000   0.00000
 -9.81168   0.00000   0.00000
 -9.76162   0.00000   0.00000
 -9.71156   0.00000   0.00000
 -9.66150   0.00000   0.00000
 -9.61144   0.00000   0.00000
 -9.56138   0.00000   0.00000
 -9.51132   0.00000   0.00000
 -9.46126   0.00000   0.00000
 -9.41120   0.00001   0.00000
 -9.36114   0.00005   0.00000
 -9.31108   0.00020   0.00001
 -9.26103   0.00068   0.00005
 -9.21097   0.00212   0.00015
 -9.16091   0.00589   0.00045
 -9.11085   0.01477   0.00119
 -9.06079   0.03351   0.00287
 -9.01073   0.06880   0.00631
 -8.96067   0.12796   0.01272
 -8.91061   0.21561   0.02351
 -8.86055   0.32927   0.03999
 -8.81049   0.45663   0.06285
 -8.76043   0.57822   0.09180
 -8.71037   0.67647   0.12566
 -8.66031   0.74639   0.16302
 -8.61025   0.79915   0.20303
 -8.56019   0.85328   0.24574
 -8.51013   0.91847   0.29172
 -8.46007   0.98433   0.34100
 -8.41001   1.02414   0.39227
 -8.35995   1.01217   0.44293
 -8.30989   0.94334   0.49016
 -8.25983   0.84264   0.53234
 -8.20977   0.75753   0.57026
 -8.15971   0.73618   0.60711
 -8.10965   0.80205   0.64726
 -8.05959   0.93919   0.69428
 -8.00954   1.09901   0.74930
 -7.95948   1.22685   0.81071
 -7.90942   1.29207   0.87539
 -7.85936   1.30068   0.94050
 -7.80930   1.28272   1.00472
 -7.75924   1.26694   1.06814
 -7.70918   1.26526   1.13148
 -7.65912   1.27822   1.19546
 -7.60906   1.31275   1.26118
 -7.55900   1.39290   1.33091
 -7.50894   1.55001   1.40850
 -7.45888   1.79591   1.49840
 -7.40882   2.09762   1.60341
 -7.35876   2.37542   1.72232
 -7.30870   2.53302   1.84912
 -7.25864   2.50706   1.97463
 -7.20858   2.30646   2.09009
 -7.15852   2.01483   2.19095
 -7.10846   1.75104   2.27861
 -7.05840   1.60982   2.35919
 -7.00834   1.61828   2.44020
 -6.95828   1.73466   2.52704
 -6.90822   1.88825   2.62156
 -6.85816   2.03084   2.72323
 -6.80810   2.16244   2.83148
 -6.75805   2.31452   2.94734
 -6.70799   2.50923   3.07295
 -6.65793   2.73286   3.20976
 -6.60787   2.94588   3.35723
 -6.55781   3.11636   3.51323
 -6.50775   3.24284   3.67557
 -6.45769   3.34622   3.84308
 -6.40763   3.44094   4.01533
 -6.35757   3.51305   4.19119
 -6.30751   3.52400   4.36760
 -6.25745   3.43821   4.53972
 -6.20739   3.25545   4.70268
 -6.15733   3.02632   4.85418
 -6.10727   2.83830   4.99626
 -6.05721   2.77772   5.13532
 -6.00715   2.88863   5.27992
 -5.95709   3.15314   5.43776
 -5.90703   3.50453   5.61320
 -5.85697   3.86295   5.80658
 -5.80691   4.16937   6.01529
 -5.75685   4.39805   6.23546
 -5.70679   4.54675   6.46307
 -5.65673   4.62189   6.69444
 -5.60667   4.63431   6.92643
 -5.55662   4.60513   7.15696
 -5.50656   4.56742   7.38560
 -5.45650   4.55546   7.61365
 -5.40644   4.59130   7.84349
 -5.35638   4.68732   8.07813
 -5.30632   4.86717   8.32178
 -5.25626   5.18143   8.58116
 -5.20620   5.68992   8.86600
 -5.15614   6.41312   9.18703
 -5.10608   7.29332   9.55213
 -5.05602   8.20809   9.96303
 -5.00596   9.03566  10.41535
 -4.95590   9.72422  10.90214
 -4.90584  10.31367  11.41844
 -4.85578  10.90084  11.96413
 -4.80572  11.58180  12.54391
 -4.75566  12.40992  13.16515
 -4.70560  13.38283  13.83508
 -4.65554  14.45078  14.55848
 -4.60548  15.53863  15.33634
 -4.55542  16.57966  16.16631
 -4.50536  17.55547  17.04513
 -4.45530  18.52515  17.97249
 -4.40524  19.62077  18.95470
 -4.35518  20.99507  20.00571
 -4.30513  22.73508  21.14382
 -4.25507  24.78982  22.38478
 -4.20501  26.96881  23.73483
 -4.15495  29.02675  25.18790
 -4.10489  30.78116  26.72879
 -4.05483  32.17760  28.33959
 -4.00477  33.25833  30.00449
 -3.95471  34.07274  31.71015
 -3.90465  34.61458  33.44295
 -3.85459  34.84305  35.18718
 -3.80453  34.76961  36.92773
 -3.75447  34.53797  38.65668
 -3.70441  34.42748  40.38011
 -3.65435  34.76147  42.12026
 -3.60429  35.76343  43.91056
 -3.55423  37.44405  45.78499
 -3.50417  39.59584  47.76714
 -3.45411  41.90843  49.86506
 -3.40405  44.12825  52.07411
 -3.35399  46.14757  54.38423
 -3.30393  47.97263  56.78572
 -3.25387  49.63437  59.27040
 -3.20381  51.15217  61.83106
 -3.15375  52.59073  64.46373
 -3.10369  54.13911  67.17391
 -3.05364  56.10330  69.98242
 -3.00358  58.77185  72.92451
 -2.95352  62.22054  76.03925
 -2.90346  66.17753  79.35207
 -2.85340  70.04063  82.85827
 -2.80334  73.05624  86.51544
 -2.75328  74.58959  90.24937
 -2.70322  74.37034  93.97231
 -2.65316  72.60307  97.60679
 -2.60310  69.89254 101.10559
 -2.55304  67.02712 104.46094
 -2.50298  64.72729 107.70116
 -2.45292  63.45655 110.87777
 -2.40286  63.33742 114.04841
 -2.35280  64.17674 117.26108
 -2.30274  65.58886 120.54443
 -2.25268  67.17586 123.90722
 -2.20262  68.68117 127.34537
 -2.15256  70.03787 130.85144
 -2.10250  71.30402 134.42089
 -2.05244  72.55093 138.05276
 -2.00238  73.77865 141.74609
 -1.95232  74.88495 145.49480
 -1.90226  75.66894 149.28276
 -1.85221  75.84231 153.07939
 -1.80215  75.04528 156.83613
 -1.75209  72.89645 160.48530
 -1.70203  69.10867 163.94485
 -1.65197  63.65260 167.13127
 -1.60191  56.87826 169.97858
 -1.55185  49.48822 172.45594
 -1.50179  42.33406 174.57516
 -1.45173  36.13026 176.38383
 -1.40167  31.24724 177.94805
 -1.35161  27.69737 179.33457
 -1.30155  25.29459 180.60081
 -1.25149  23.84888 181.79467
 -1.20143  23.24510 182.95831
 -1.15137  23.36593 184.12800
 -1.10131  23.96215 185.32754
 -1.05125  24.62673 186.56034
 -1.00119  24.93545 187.80860
 -0.95113  24.65795 189.04297
 -0.90107  23.87052 190.23792
 -0.85101  22.88257 191.38341
 -0.80095  22.03879 192.48666
 -0.75089  21.53748 193.56482
 -0.70083  21.36931 194.63456
 -0.65077  21.38835 195.70525
 -0.60072  21.45174 196.77912
 -0.55066  21.53207 197.85700
 -0.50060  21.72807 198.94470
 -0.45054  22.17320 200.05468
 -0.40048  22.92203 201.20215
 -0.35042  23.90590 202.39887
 -0.30036  24.97541 203.64913
 -0.25030  25.96677 204.94901
 -0.20024  26.72762 206.28699
 -0.15018  27.10514 207.64386
 -0.10012  26.94624 208.99278
 -0.05006  26.13869 210.30127
  0.00000  24.67217 211.53635
  0.05006  22.67822 212.67161
  0.10012  20.41869 213.69376
  0.15018  18.21093 214.60540
  0.20024  16.30435 215.42158
  0.25030  14.76897 216.16091
  0.30036  13.48092 216.83576
  0.35042  12.23720 217.44835
  0.40048  10.92401 217.99520
  0.45054   9.60784 218.47617
  0.50060   8.48241 218.90079
  0.55066   7.72706 219.28761
  0.60072   7.39143 219.65762
  0.65077   7.37847 220.02698
  0.70083   7.51284 220.40307
  0.75089   7.63519 220.78529
  0.80095   7.66899 221.16919
  0.85101   7.63660 221.55148
  0.90107   7.62623 221.93324
  0.95113   7.72893 222.32015
  1.00119   7.97656 222.71946
  1.05125   8.31236 223.13557
  1.10131   8.61073 223.56662
  1.15137   8.73718 224.00400
  1.20143   8.61711 224.43537
  1.25149   8.27519 224.84962
  1.30155   7.82020 225.24110
  1.35161   7.37898 225.61048
  1.40167   7.01654 225.96173
  1.45173   6.69664 226.29696
  1.50179   6.31887 226.61328
  1.55185   5.81591 226.90442
  1.60191   5.24343 227.16691
  1.65197   4.78955 227.40667
  1.70203   4.68405 227.64115
  1.75209   5.06025 227.89447
  1.80215   5.85866 228.18775
  1.85221   6.83564 228.52994
  1.90226   7.67233 228.91401
  1.95232   8.11647 229.32032
  2.00238   8.07513 229.72456
  2.05244   7.61676 230.10585
  2.10250   6.90237 230.45138
  2.15256   6.10056 230.75677
  2.20262   5.33437 231.02380
  2.25268   4.67541 231.25785
  2.30274   4.16979 231.46659
  2.35280   3.86372 231.66001
  2.40286   3.80296 231.85038
  2.45292   4.00452 232.05085
  2.50298   4.42857 232.27254
  2.55304   4.98444 232.52206
  2.60310   5.57605 232.80119
  2.65316   6.15080 233.10910
  2.70322   6.70517 233.44476
  2.75328   7.23913 233.80715
  2.80334   7.70395 234.19280
  2.85340   7.99754 234.59316
  2.90346   8.01540 234.99440
  2.95352   7.71206 235.38047
  3.00358   7.12311 235.73705
  3.05364   6.34089 236.05447
  3.10369   5.47442 236.32852
  3.15375   4.62222 236.55990
  3.20381   3.86046 236.75316
  3.25387   3.23589 236.91514
  3.30393   2.76257 237.05344
  3.35399   2.43168 237.17517
  3.40405   2.23631 237.28711
  3.45411   2.19654 237.39707
  3.50417   2.36212 237.51532
  3.55423   2.78235 237.65460
  3.60429   3.45885 237.82775
  3.65435   4.31497 238.04376
  3.70441   5.20817 238.30448
  3.75447   5.98022 238.60384
  3.80453   6.51275 238.92987
  3.85459   6.75511 239.26803
  3.90465   6.71623 239.60424
  3.95471   6.43682 239.92646
  4.00477   5.96495 240.22507
  4.05483   5.34920 240.49285
  4.10489   4.64924 240.72558
  4.15495   3.95164 240.92340
  4.20501   3.37278 241.09224
  4.25507   3.03516 241.24418
  4.30513   3.02125 241.39542
  4.35518   3.32969 241.56211
  4.40524   3.86505 241.75559
  4.45530   4.47487 241.97960
  4.50536   5.01595 242.23070
  4.55542   5.41076 242.50156
  4.60548   5.66260 242.78502
  4.65554   5.82869 243.07680
  4.70560   5.97767 243.37604
  4.75566   6.15971 243.68440
  4.80572   6.39681 244.00462
  4.85578   6.68016 244.33902
  4.90584   6.96385 244.68763
  4.95590   7.16366 245.04624
  5.00596   7.17993 245.40567
  5.05602   6.94532 245.75335
  5.10608   6.47079 246.07727
  5.15614   5.85767 246.37050
  5.20620   5.26623 246.63413
  5.25626   4.85702 246.87727
  5.30632   4.73039 247.11407
  5.35638   4.88824 247.35878
  5.40644   5.23684 247.62093
  5.45650   5.63627 247.90308
  5.50656   5.97595 248.20223
  5.55662   6.23243 248.51423
  5.60667   6.47207 248.83821
  5.65673   6.79767 249.17850
  5.70679   7.27821 249.54285
  5.75685   7.90860 249.93875
  5.80691   8.61808 250.37017
  5.85697   9.30819 250.83613
  5.90703   9.88846 251.33114
  5.95709  10.29348 251.84643
  6.00715  10.48747 252.37143
  6.05721  10.46755 252.89543
  6.10727  10.26723 253.40940
  6.15733   9.95267 253.90763
  6.20739   9.60646 254.38853
  6.25745   9.30062 254.85411
  6.30751   9.06970 255.30814
  6.35757   8.90194 255.75376
  6.40763   8.76091 256.19233
  6.45769   8.62568 256.62413
  6.50775   8.51352 257.05031
  6.55781   8.46006 257.47382
  6.60787   8.47579 257.89811
  6.65793   8.52636 258.32494
  6.70799   8.55891 258.75340
  6.75805   8.54472 259.18114
  6.80810   8.49378 259.60634
  6.85816   8.43236 260.02846
  6.90822   8.37433 260.44767
  6.95828   8.31500 260.86392
  7.00834   8.24673 261.27675
  7.05840   8.17598 261.68603
  7.10846   8.12626 262.09283
  7.15852   8.12574 262.49960
  7.20858   8.18743 262.90946
  7.25864   8.29369 263.32464
  7.30870   8.39544 263.74491
  7.35876   8.42831 264.16683
  7.40882   8.33836 264.58424
  7.45888   8.10735 264.99010
  7.50894   7.76987 265.37905
  7.55900   7.41475 265.75023
  7.60906   7.16158 266.10874
  7.65912   7.11211 266.46477
  7.70918   7.29674 266.83004
  7.75924   7.64904 267.21295
  7.80930   8.02822 267.61484
  7.85936   8.27820 268.02924
  7.90942   8.29032 268.44425
  7.95948   8.04140 268.84680
  8.00954   7.59733 269.22712
  8.05959   7.08623 269.58185
  8.10965   6.65233 269.91486
  8.15971   6.40740 270.23562
  8.20977   6.39927 270.55596
  8.25983   6.60809 270.88676
  8.30989   6.96736 271.23554
  8.35995   7.39717 271.60584
  8.41001   7.83669 271.99814
  8.46007   8.26352 272.41181
  8.51013   8.69001 272.84683
  8.56019   9.13721 273.30424
  8.61025   9.60406 273.78501
  8.66031  10.05607 274.28841
  8.71037  10.44050 274.81106
  8.76043  10.70755 275.34708
  8.81049  10.81386 275.88841
  8.86055  10.71375 276.42474
  8.91061  10.36852 276.94378
  8.96067   9.78599 277.43367
  9.01073   9.05702 277.88706
  9.06079   8.34019 278.30456
  9.11085   7.78906 278.69448
  9.16091   7.47583 279.06872
  9.21097   7.37497 279.43790
  9.26103   7.41805 279.80925
  9.31108   7.56919 280.18816
  9.36114   7.85819 280.58154
  9.41120   8.34892 280.99948
  9.46126   9.07101 281.45357
  9.51132   9.96379 281.95236
  9.56138  10.87019 282.49651
  9.61144  11.58941 283.07667
  9.66150  11.96381 283.67558
  9.71156  11.94991 284.27378
  9.76162  11.62858 284.85591
  9.81168  11.15149 285.41415
  9.86174  10.66773 285.94817
  9.91180  10.28002 286.46278
  9.96186  10.03945 286.96535
 10.01192   9.95197 287.46354
 10.06198   9.97738 287.96301
 10.11204  10.03448 288.46533
 10.16210  10.03226 288.96754
 10.21216   9.91749 289.46401
 10.26222   9.70269 289.94972
 10.31228   9.45197 290.42288
 10.36234   9.23987 290.88543
 10.41240   9.11969 291.34195
 10.46246   9.12367 291.79868
 10.51251   9.28404 292.26344
 10.56257   9.64338 292.74618
 10.61263  10.23044 293.25831
 10.66269  11.00975 293.80946
 10.71275  11.84453 294.40239
 10.76281  12.51573 295.02892
 10.81287  12.80654 295.67001
 10.86293  12.61412 296.30147
 10.91299  12.02270 296.90332
 10.96305  11.28818 297.46840
 11.01311  10.73438 298.00576
 11.06317  10.61321 298.53705
 11.11323  11.00116 299.08777
 11.16329  11.77939 299.67744
 11.21335  12.69661 300.31303
 11.26341  13.47356 300.98751
 11.31347  13.89768 301.68322
 11.36353  13.87221 302.37766
 11.41359  13.41342 303.04913
 11.46365  12.61624 303.68069
 11.51371  11.61955 304.26236
 11.56377  10.58656 304.79232
 11.61383   9.68618 305.27721
 11.66389   9.05223 305.73036
 11.71395   8.72733 306.16724
 11.76400   8.63566 306.59954
 11.81406   8.62268 307.03119
 11.86412   8.54717 307.45906
 11.91418   8.36393 307.87775
 11.96424   8.14062 308.28527
 12.01430   8.00282 308.68589
     12.01430274     -30.03575685   841       2.39815248       1.00000000; Z= 27; 4s 4p_y 4p_z 4p_x 3d_xy 3d_yz 3d_z^2 3d_xz 3d_x^2-y^2 
-30.03576   0.00000   0.00000   0.00000   0.00000   0.00000   0.00000   0.00000   0.00000   0.00000
-29.98570   0.00000   0.00000   0.00000   0.00000   0.00000   0.00000   0.00000   0.00000   0.00000
-29.93564   0.00000   0.00000   0.00000   0.00000   0.00000   0.00000   0.00000   0.00000   0.00000
-29.88558   0.00000   0.00000   0.00000   0.00000   0.00000   0.00000   0.00000   0.00000   0.00000
-29.83552   0.00000   0.00000   0.00000   0.00000   0.00000   0.00000   0.00000   0.00000   0.00000
-29.78546   0.00000   0.00000   0.00000   0.00000   0.00000   0.00000   0.00000   0.00000   0.00000
-29.73540   0.00000   0.00000   0.00000   0.00000   0.00000   0.00000   0.00000   0.00000   0.00000
-29.68534   0.00000   0.00000   0.00000   0.00000   0.00000   0.00000   0.00000   0.00000   0.00000
-29.63528   0.00000   0.00000   0.00000   0.00000   0.00000   0.00000   0.00000   0.00000   0.00000
-29.58522   0.00000   0.00000   0.00000   0.00000   0.00000   0.00000   0.00000   0.00000   0.00000
-29.53516   0.00000   0.00000   0.00000   0.00000   0.00000   0.00000   0.00000   0.00000   0.00000
-29.48510   0.00000   0.00000   0.00000   0.00000   0.00000   0.00000   0.00000   0.00000   0.00000
-29.43504   0.00000   0.00000   0.00000   0.00000   0.00000   0.00000   0.00000   0.00000   0.00000
-29.38498   0.00000   0.00000   0.00000   0.00000   0.00000   0.00000   0.00000   0.00000   0.00000
-29.33492   0.00000   0.00000   0.00000   0.00000   0.00000   0.00000   0.00000   0.00000   0.00000
-29.28486   0.00000   0.00000   0.00000   0.00000   0.00000   0.00000   0.00000   0.00000   0.00000
-29.23480   0.00000   0.00000   0.00000   0.00000   0.00000   0.00000   0.00000   0.00000   0.00000
-29.18474   0.00000   0.00000   0.00000   0.00000   0.00000   0.00000   0.00000   0.00000   0.00000
-29.13468   0.00000   0.00000   0.00000   0.00000   0.00000   0.00000   0.00000   0.00000   0.00000
-29.08462   0.00000   0.00000   0.00000   0.00000   0.00000   0.00000   0.00000   0.00000   0.00000
-29.03456   0.00000   0.00000   0.00000   0.00000   0.00000   0.00000   0.00000   0.00000   0.00000
-28.98451   0.00000   0.00000   0.00000   0.00000   0.00000   0.00000   0.00000   0.00000   0.00000
-28.93445   0.00000   0.00000   0.00000   0.00000   0.00000   0.00000   0.00000   0.00000   0.00000
-28.88439   0.00000   0.00000   0.00000   0.00000   0.00000   0.00000   0.00000   0.00000   0.00000
-28.83433   0.00000   0.00000   0.00000   0.00000   0.00000   0.00000   0.00000   0.00000   0.00000
-28.78427   0.00000   0.00000   0.00000   0.00000   0.00000   0.00000   0.00000   0.00000   0.00000
-28.73421   0.00000   0.00000   0.00000   0.00000   0.00000   0.00000   0.00000   0.00000   0.00000
-28.68415   0.00000   0.00000   0.00000   0.00000   0.00000   0.00000   0.00000   0.00000   0.00000
-28.63409   0.00000   0.00000   0.00000   0.00000   0.00000   0.00000   0.00000   0.00000   0.00000
-28.58403   0.00000   0.00000   0.00000   0.00000   0.00000   0.00000   0.00000   0.00000   0.00000
-28.53397   0.00000   0.00000   0.00000   0.00000   0.00000   0.00000   0.00000   0.00000   0.00000
-28.48391   0.00000   0.00000   0.00000   0.00000   0.00000   0.00000   0.00000   0.00000   0.00000
-28.43385   0.00000   0.00000   0.00000   0.00000   0.00000   0.00000   0.00000   0.00000   0.00000
-28.38379   0.00000   0.00000   0.00000   0.00000   0.00000   0.00000   0.00000   0.00000   0.00000
-28.33373   0.00000   0.00000   0.00000   0.00000   0.00000   0.00000   0.00000   0.00000   0.00000
-28.28367   0.00000   0.00000   0.00000   0.00000   0.00000   0.00000   0.00000   0.00000   0.00000
-28.23361   0.00000   0.00000   0.00000   0.00000   0.00000   0.00000   0.00000   0.00000   0.00000
-28.18355   0.00000   0.00000   0.00000   0.00000   0.00000   0.00000   0.00000   0.00000   0.00000
-28.13349   0.00000   0.00000   0.00000   0.00000   0.00000   0.00000   0.00000   0.00000   0.00000
-28.08343   0.00000   0.00000   0.00000   0.00000   0.00000   0.00000   0.00000   0.00000   0.00000
-28.03337   0.00000   0.00000   0.00000   0.00000   0.00000   0.00000   0.00000   0.00000   0.00000
-27.98331   0.00000   0.00000   0.00000   0.00000   0.00000   0.00000   0.00000   0.00000   0.00000
-27.93325   0.00000   0.00000   0.00000   0.00000   0.00000   0.00000   0.00000   0.00000   0.00000