   20   20    1    1
  0.2077006E+02  0.5112815E-09  0.5112816E-09  0.1834919E-08  0.5000000E-15
  1.000000000000000E-004
  CAR 
 unknown system                          
    212     34    288
 
  0.0000000E+00  0.0000000E+00  0.0000000E+00  0.1562500E-01
    1       -6.435074   1.000000
    2       -5.330032   1.000000
    3       -4.286246   1.000000
    4       -3.034690   1.000000
    5       -2.410261   1.000000
    6       -2.410203   1.000000
    7       -2.410192   1.000000
    8       -2.277999   1.000000
    9       -2.255316   1.000000
   10       -2.255314   1.000000
   11       -2.255180   1.000000
   12       -1.890477   1.000000
   13       -1.890389   1.000000
   14       -1.890316   1.000000
   15       -1.831496   1.000000
   16       -1.831449   1.000000
   17       -1.831406   1.000000
   18       -1.565897   1.000000
   19       -1.565855   1.000000
   20       -1.565573   1.000000
   21       -1.524536   1.000000
   22       -1.524490   1.000000
   23       -1.524144   1.000000
   24       -1.150804   1.000000
   25       -1.150554   1.000000
   26       -1.150509   1.000000
   27       -0.924237   1.000000
   28       -0.924023   1.000000
   29       -0.923952   1.000000
   30       -0.743157   1.000000
   31       -0.743064   1.000000
   32       -0.743051   1.000000
   33       -0.708095   1.000000
   34       -0.621302   1.000000
   35       -0.621223   1.000000
   36       -0.603523   1.000000
   37       -0.472902   1.000000
   38       -0.472831   1.000000
   39       -0.451570   1.000000
   40       -0.451520   1.000000
   41       -0.451517   1.000000
   42       -0.353608   1.000000
   43       -0.353524   1.000000
   44       -0.229453   1.000000
   45       -0.229122   1.000000
   46       -0.229021   1.000000
   47       -0.100793   1.000000
   48       -0.100699   1.000000
   49       -0.100695   1.000000
   50       -0.042658   1.000000
   51       -0.042572   1.000000
   52        0.007727   1.000000
   53        0.105924   1.000000
   54        0.105946   1.000000
   55        0.106021   1.000000
   56        0.175895   1.000000
   57        0.175936   1.000000
   58        0.304054   1.000000
   59        0.304076   1.000000
   60        0.304153   1.000000
   61        0.362002   1.000000
   62        0.362017   1.000000
   63        0.440986   1.000000
   64        0.441063   1.000000
   65        0.441659   1.000000
   66        0.479602   1.000000
   67        0.479739   1.000000
   68        0.479820   1.000000
   69        0.576834   1.000000
   70        0.608712   1.000000
   71        0.608729   1.000000
   72        0.608792   1.000000
   73        0.644226   1.000000
   74        0.644237   1.000000
   75        0.711597   1.000000
   76        0.711610   1.000000
   77        0.736884   1.000000
   78        0.736933   1.000000
   79        0.736986   1.000000
   80        0.899496   1.000000
   81        0.899564   1.000000
   82        0.899601   1.000000
   83        0.940098   1.000000
   84        0.940175   1.000000
   85        0.940183   1.000000
   86        1.134713   1.000000
   87        1.134792   1.000000
   88        1.134869   1.000000
   89        1.241067   1.000000
   90        1.241165   1.000000
   91        1.241515   1.000000
   92        1.403280   1.000000
   93        1.403294   1.000000
   94        1.664362   1.000000
   95        1.670792   1.000000
   96        1.671033   1.000000
   97        1.671067   1.000000
   98        2.266842   0.999898
   99        2.266937   0.999897
  100        2.267030   0.999896
  101        2.322723   0.983557
  102        2.322763   0.983510
  103        2.322815   0.983450
  104        2.392376   0.564891
  105        2.494338   0.003259
  106        2.494342   0.003258
  107        2.973145   0.000000
  108        2.973200   0.000000
  109        2.973218   0.000000
  110        3.119213   0.000000
  111        3.119359   0.000000
  112        3.119390   0.000000
  113        3.754914   0.000000
  114        3.754950   0.000000
  115        3.754963   0.000000
  116        4.391654   0.000000
  117        4.392062   0.000000
  118        4.392146   0.000000
  119        4.666730   0.000000
  120        4.667115   0.000000
  121        4.667226   0.000000
  122        6.466502   0.000000
  123        6.841538   0.000000
  124        6.841632   0.000000
  125        6.841722   0.000000
  126        7.766970   0.000000
  127        7.805041   0.000000
  128        7.805093   0.000000
  129        7.805305   0.000000
  130        8.220668   0.000000
  131        8.220708   0.000000
  132        8.220917   0.000000
  133        8.442745   0.000000
  134        9.647055   0.000000
  135        9.647113   0.000000
  136        9.647297   0.000000
  137       10.809186   0.000000
  138       10.809550   0.000000
  139       10.809605   0.000000
  140       11.263345   0.000000
  141       11.513980   0.000000
  142       11.514122   0.000000
  143       11.514517   0.000000
  144       11.943452   0.000000
  145       12.466298   0.000000
  146       12.466388   0.000000
  147       12.466410   0.000000
  148       13.522265   0.000000
  149       13.522472   0.000000
  150       13.522527   0.000000
  151       13.804096   0.000000
  152       13.804101   0.000000
  153       13.804362   0.000000
  154       14.733403   0.000000
  155       14.733463   0.000000
  156       14.733535   0.000000
  157       15.397701   0.000000
  158       15.398100   0.000000
  159       15.398195   0.000000
  160       15.457146   0.000000
  161       15.457299   0.000000
  162       15.457450   0.000000
  163       15.687409   0.000000
  164       15.687431   0.000000
  165       15.687454   0.000000
  166       15.966171   0.000000
  167       16.136388   0.000000
  168       16.136426   0.000000
  169       16.136439   0.000000
  170       16.344828   0.000000
  171       17.492912   0.000000
  172       17.492948   0.000000
  173       17.493120   0.000000
  174       18.012467   0.000000
  175       18.012738   0.000000
  176       18.012825   0.000000
  177       18.661953   0.000000
  178       18.661956   0.000000
  179       18.662092   0.000000
  180       18.922112   0.000000
  181       18.922153   0.000000
  182       18.922170   0.000000
  183       19.211962   0.000000
  184       19.212186   0.000000
  185       19.212295   0.000000
  186       19.979385   0.000000
  187       19.979461   0.000000
  188       19.979607   0.000000
  189       21.165546   0.000000
  190       21.165601   0.000000
  191       21.165623   0.000000
  192       21.256422   0.000000
  193       21.415879   0.000000
  194       21.415966   0.000000
  195       21.416039   0.000000
  196       21.792182   0.000000
  197       22.116311   0.000000
  198       22.116422   0.000000
  199       22.116446   0.000000
  200       22.445733   0.000000
  201       22.445899   0.000000
  202       22.445980   0.000000
  203       22.832846   0.000000
  204       22.832976   0.000000
  205       22.833439   0.000000
  206       23.551640   0.000000
  207       23.551695   0.000000
  208       23.551708   0.000000
  209       23.614467   0.000000
  210       23.614684   0.000000
  211       23.614832   0.000000
  212       23.772475   0.000000
  213       23.796070   0.000000
  214       23.796095   0.000000
  215       23.796126   0.000000
  216       24.358953   0.000000
  217       24.359061   0.000000
  218       24.359226   0.000000
  219       24.377489   0.000000
  220       24.793875   0.000000
  221       24.794027   0.000000
  222       24.875238   0.000000
  223       24.875308   0.000000
  224       24.875464   0.000000
  225       25.005190   0.000000
  226       25.005223   0.000000
  227       25.005558   0.000000
  228       25.224920   0.000000
  229       25.225599   0.000000
  230       25.225737   0.000000
  231       25.290334   0.000000
  232       25.472088   0.000000
  233       25.540302   0.000000
  234       25.540382   0.000000
  235       25.905925   0.000000
  236       26.268224   0.000000
  237       26.268275   0.000000
  238       26.809490   0.000000
  239       26.809576   0.000000
  240       27.337221   0.000000
  241       27.414233   0.000000
  242       27.414244   0.000000
  243       27.414466   0.000000
  244       27.646996   0.000000
  245       27.647063   0.000000
  246       28.333974   0.000000
  247       28.333978   0.000000
  248       28.334410   0.000000
  249       28.354311   0.000000
  250       28.354331   0.000000
  251       28.418034   0.000000
  252       28.418776   0.000000
  253       28.418997   0.000000
  254       28.706810   0.000000
  255       29.171612   0.000000
  256       29.171855   0.000000
  257       29.171914   0.000000
  258       29.395851   0.000000
  259       29.396256   0.000000
  260       29.396301   0.000000
  261       29.683821   0.000000
  262       29.684160   0.000000
  263       29.685494   0.000000
  264       29.774599   0.000000
  265       29.774604   0.000000
  266       30.122990   0.000000
  267       30.123798   0.000000
  268       30.124018   0.000000
  269       30.349521   0.000000
  270       30.349550   0.000000
  271       30.415454   0.000000
  272       30.415486   0.000000
  273       30.415991   0.000000
  274       30.556573   0.000000
  275       30.556629   0.000000
  276       30.556793   0.000000
  277       30.990871   0.000000
  278       30.991620   0.000000
  279       30.991822   0.000000
  280       31.809252   0.000000
  281       31.809337   0.000000
  282       32.173444   0.000000
  283       32.301595   0.000000
  284       32.301656   0.000000
  285       32.367490   0.000000
  286       32.823775   0.000000
  287       32.920535   0.000000
  288       32.921220   0.000000
 
  0.1250000E+00  0.0000000E+00  0.0000000E+00  0.3125000E-01
    1       -6.309764   1.000000
    2       -5.207036   1.000000
    3       -4.169838   1.000000
    4       -2.933828   1.000000
    5       -2.517048   1.000000
    6       -2.378008   1.000000
    7       -2.377958   1.000000
    8       -2.267782   1.000000
    9       -2.212091   1.000000
   10       -2.211995   1.000000
   11       -2.192938   1.000000
   12       -1.892931   1.000000
   13       -1.847835   1.000000
   14       -1.847761   1.000000
   15       -1.825673   1.000000
   16       -1.789610   1.000000
   17       -1.789543   1.000000
   18       -1.649158   1.000000
   19       -1.559232   1.000000
   20       -1.559120   1.000000
   21       -1.447008   1.000000
   22       -1.446634   1.000000
   23       -1.446348   1.000000
   24       -1.137994   1.000000
   25       -1.125978   1.000000
   26       -1.125859   1.000000
   27       -0.907547   1.000000
   28       -0.907373   1.000000
   29       -0.905566   1.000000
   30       -0.733816   1.000000
   31       -0.733739   1.000000
   32       -0.732507   1.000000
   33       -0.712469   1.000000
   34       -0.697044   1.000000
   35       -0.618408   1.000000
   36       -0.579496   1.000000
   37       -0.490922   1.000000
   38       -0.490890   1.000000
   39       -0.467087   1.000000
   40       -0.439653   1.000000
   41       -0.437244   1.000000
   42       -0.373436   1.000000
   43       -0.311447   1.000000
   44       -0.275524   1.000000
   45       -0.254549   1.000000
   46       -0.254289   1.000000
   47       -0.160362   1.000000
   48       -0.160271   1.000000
   49       -0.159849   1.000000
   50       -0.093893   1.000000
   51       -0.060958   1.000000
   52        0.000027   1.000000
   53        0.072478   1.000000
   54        0.072580   1.000000
   55        0.111097   1.000000
   56        0.146510   1.000000
   57        0.159318   1.000000
   58        0.291006   1.000000
   59        0.291158   1.000000
   60        0.303390   1.000000
   61        0.331893   1.000000
   62        0.365696   1.000000
   63        0.377615   1.000000
   64        0.378084   1.000000
   65        0.431164   1.000000
   66        0.448874   1.000000
   67        0.478188   1.000000
   68        0.478350   1.000000
   69        0.513010   1.000000
   70        0.550971   1.000000
   71        0.557743   1.000000
   72        0.557769   1.000000
   73        0.596793   1.000000
   74        0.644779   1.000000
   75        0.652432   1.000000
   76        0.652492   1.000000
   77        0.698416   1.000000
   78        0.706372   1.000000
   79        0.755096   1.000000
   80        0.755166   1.000000
   81        0.786136   1.000000
   82        0.850050   1.000000
   83        0.856646   1.000000
   84        0.856713   1.000000
   85        0.889901   1.000000
   86        0.968839   1.000000
   87        1.001575   1.000000
   88        1.001747   1.000000
   89        1.185919   1.000000
   90        1.252944   1.000000
   91        1.253087   1.000000
   92        1.350098   1.000000
   93        1.404443   1.000000
   94        1.448614   1.000000
   95        1.736325   1.000000
   96        1.736399   1.000000
   97        1.736548   1.000000
   98        1.924139   1.000000
   99        2.175071   1.000000
  100        2.175087   1.000000
  101        2.194336   1.000000
  102        2.278614   0.999639
  103        2.309039   0.994141
  104        2.309094   0.994115
  105        2.486888   0.006040
  106        2.526657   0.000139
  107        2.702269   0.000000
  108        2.702333   0.000000
  109        2.900508   0.000000
  110        2.968844   0.000000
  111        3.225437   0.000000
  112        3.241688   0.000000
  113        3.241748   0.000000
  114        3.901374   0.000000
  115        3.901429   0.000000
  116        4.290795   0.000000
  117        4.414091   0.000000
  118        4.414169   0.000000
  119        5.247072   0.000000
  120        5.247642   0.000000
  121        5.613571   0.000000
  122        6.571979   0.000000
  123        6.979702   0.000000
  124        6.979738   0.000000
  125        7.154392   0.000000
  126        7.883378   0.000000
  127        7.895591   0.000000
  128        7.895792   0.000000
  129        8.122969   0.000000
  130        8.389745   0.000000
  131        8.389982   0.000000
  132        8.400948   0.000000
  133        8.524519   0.000000
  134        9.702556   0.000000
  135        9.702675   0.000000
  136        9.759128   0.000000
  137       10.767775   0.000000
  138       11.065455   0.000000
  139       11.065745   0.000000
  140       11.361811   0.000000
  141       11.362034   0.000000
  142       11.382243   0.000000
  143       11.720764   0.000000
  144       12.036054   0.000000
  145       12.289530   0.000000
  146       12.879179   0.000000
  147       12.879317   0.000000
  148       13.078365   0.000000
  149       13.078490   0.000000
  150       13.394653   0.000000
  151       13.849315   0.000000
  152       13.965544   0.000000
  153       14.285327   0.000000
  154       14.285369   0.000000
  155       14.663332   0.000000
  156       14.663462   0.000000
  157       14.738942   0.000000
  158       14.739135   0.000000
  159       15.110577   0.000000
  160       15.110616   0.000000
  161       15.489795   0.000000
  162       16.031596   0.000000
  163       16.031847   0.000000
  164       16.079212   0.000000
  165       16.319396   0.000000
  166       16.358739   0.000000
  167       16.417179   0.000000
  168       16.417530   0.000000
  169       16.447826   0.000000
  170       16.596063   0.000000
  171       16.596276   0.000000
  172       17.211061   0.000000
  173       17.506235   0.000000
  174       17.610996   0.000000
  175       17.611036   0.000000
  176       17.675076   0.000000
  177       17.893241   0.000000
  178       17.975146   0.000000
  179       17.975570   0.000000
  180       18.141258   0.000000
  181       18.141332   0.000000
  182       19.089366   0.000000
  183       19.566038   0.000000
  184       19.566081   0.000000
  185       20.118415   0.000000
  186       20.118526   0.000000
  187       20.472579   0.000000
  188       20.472848   0.000000
  189       20.718525   0.000000
  190       20.835139   0.000000
  191       21.273242   0.000000
  192       21.332401   0.000000
  193       21.363312   0.000000
  194       21.529508   0.000000
  195       21.692456   0.000000
  196       21.692503   0.000000
  197       21.861943   0.000000
  198       22.068104   0.000000
  199       22.220279   0.000000
  200       22.291340   0.000000
  201       22.291485   0.000000
  202       22.401689   0.000000
  203       22.401724   0.000000
  204       22.731246   0.000000
  205       22.946937   0.000000
  206       23.079150   0.000000
  207       23.079203   0.000000
  208       23.374706   0.000000
  209       23.375016   0.000000
  210       23.420835   0.000000
  211       23.513469   0.000000
  212       23.643306   0.000000
  213       23.723637   0.000000
  214       23.907367   0.000000
  215       23.965620   0.000000
  216       23.965657   0.000000
  217       24.197989   0.000000
  218       24.382395   0.000000
  219       24.382809   0.000000
  220       24.486186   0.000000
  221       24.486688   0.000000
  222       24.527889   0.000000
  223       24.682724   0.000000
  224       24.755216   0.000000
  225       24.965273   0.000000
  226       25.082679   0.000000
  227       25.155320   0.000000
  228       25.155649   0.000000
  229       25.480091   0.000000
  230       25.480729   0.000000
  231       25.515762   0.000000
  232       25.574244   0.000000
  233       25.680744   0.000000
  234       25.681222   0.000000
  235       25.736744   0.000000
  236       26.239407   0.000000
  237       26.503241   0.000000
  238       26.762215   0.000000
  239       27.167203   0.000000
  240       27.167543   0.000000
  241       27.252456   0.000000
  242       27.442827   0.000000
  243       27.504515   0.000000
  244       27.597105   0.000000
  245       27.689732   0.000000
  246       27.689900   0.000000
  247       27.980350   0.000000
  248       28.193294   0.000000
  249       28.255781   0.000000
  250       28.390728   0.000000
  251       28.391354   0.000000
  252       28.458696   0.000000
  253       28.735398   0.000000
  254       28.735740   0.000000
  255       28.816595   0.000000
  256       28.974555   0.000000
  257       29.015745   0.000000
  258       29.016193   0.000000
  259       29.305667   0.000000
  260       29.483641   0.000000
  261       29.483719   0.000000
  262       29.674532   0.000000
  263       29.759046   0.000000
  264       29.947606   0.000000
  265       30.146261   0.000000
  266       30.422455   0.000000
  267       30.423203   0.000000
  268       30.497216   0.000000
  269       30.529230   0.000000
  270       30.540012   0.000000
  271       30.597783   0.000000
  272       30.665889   0.000000
  273       30.675839   0.000000
  274       30.676345   0.000000
  275       31.094164   0.000000
  276       31.095926   0.000000
  277       31.397300   0.000000
  278       31.397497   0.000000
  279       31.402527   0.000000
  280       31.493945   0.000000
  281       31.596827   0.000000
  282       31.597076   0.000000
  283       31.707018   0.000000
  284       31.854383   0.000000
  285       32.041421   0.000000
  286       32.752530   0.000000
  287       32.752975   0.000000
  288       32.887251   0.000000
 
  0.2500000E+00  0.0000000E+00  0.0000000E+00  0.3125000E-01
    1       -5.939159   1.000000
    2       -4.845623   1.000000
    3       -3.831224   1.000000
    4       -2.931971   1.000000
    5       -2.648985   1.000000
    6       -2.389487   1.000000
    7       -2.288779   1.000000
    8       -2.288730   1.000000
    9       -2.092353   1.000000
   10       -2.092243   1.000000
   11       -2.020642   1.000000
   12       -1.957839   1.000000
   13       -1.802844   1.000000
   14       -1.733947   1.000000
   15       -1.733860   1.000000
   16       -1.684132   1.000000
   17       -1.684055   1.000000
   18       -1.641353   1.000000
   19       -1.477818   1.000000
   20       -1.477803   1.000000
   21       -1.350414   1.000000
   22       -1.292378   1.000000
   23       -1.292070   1.000000
   24       -1.097579   1.000000
   25       -1.065469   1.000000
   26       -1.065344   1.000000
   27       -0.892781   1.000000
   28       -0.892754   1.000000
   29       -0.876094   1.000000
   30       -0.852751   1.000000
   31       -0.769095   1.000000
   32       -0.720478   1.000000
   33       -0.720355   1.000000
   34       -0.707114   1.000000
   35       -0.641363   1.000000
   36       -0.540147   1.000000
   37       -0.539894   1.000000
   38       -0.491911   1.000000
   39       -0.462597   1.000000
   40       -0.409599   1.000000
   41       -0.398342   1.000000
   42       -0.397548   1.000000
   43       -0.397537   1.000000
   44       -0.374691   1.000000
   45       -0.351862   1.000000
   46       -0.339466   1.000000
   47       -0.294652   1.000000
   48       -0.294576   1.000000
   49       -0.266038   1.000000
   50       -0.190475   1.000000
   51       -0.147458   1.000000
   52        0.003583   1.000000
   53        0.003850   1.000000
   54        0.071290   1.000000
   55        0.114332   1.000000
   56        0.118929   1.000000
   57        0.137256   1.000000
   58        0.157948   1.000000
   59        0.158030   1.000000
   60        0.203193   1.000000
   61        0.208606   1.000000
   62        0.220658   1.000000
   63        0.220912   1.000000
   64        0.298195   1.000000
   65        0.298693   1.000000
   66        0.312829   1.000000
   67        0.331314   1.000000
   68        0.369689   1.000000
   69        0.456591   1.000000
   70        0.473177   1.000000
   71        0.473245   1.000000
   72        0.498799   1.000000
   73        0.503096   1.000000
   74        0.503149   1.000000
   75        0.525707   1.000000
   76        0.531935   1.000000
   77        0.582835   1.000000
   78        0.582895   1.000000
   79        0.625067   1.000000
   80        0.641260   1.000000
   81        0.693367   1.000000
   82        0.694749   1.000000
   83        0.694824   1.000000
   84        0.711020   1.000000
   85        0.769046   1.000000
   86        0.786479   1.000000
   87        0.786503   1.000000
   88        0.814814   1.000000
   89        0.987720   1.000000
   90        1.012072   1.000000
   91        1.031787   1.000000
   92        1.279784   1.000000
   93        1.319482   1.000000
   94        1.319570   1.000000
   95        1.586075   1.000000
   96        1.830585   1.000000
   97        1.830595   1.000000
   98        1.961657   1.000000
   99        2.034120   1.000000
  100        2.034209   1.000000
  101        2.067238   1.000000
  102        2.067347   1.000000
  103        2.086623   1.000000
  104        2.308620   0.994335
  105        2.359034   0.865731
  106        2.465432   0.028523
  107        2.479796   0.010466
  108        2.479818   0.010448
  109        2.554307   0.000005
  110        2.699332   0.000000
  111        3.437193   0.000000
  112        3.437206   0.000000
  113        3.706124   0.000000
  114        3.712426   0.000000
  115        3.889595   0.000000
  116        3.889628   0.000000
  117        4.982215   0.000000
  118        4.982491   0.000000
  119        5.775152   0.000000
  120        6.158785   0.000000
  121        6.159336   0.000000
  122        6.886213   0.000000
  123        7.378222   0.000000
  124        7.378324   0.000000
  125        7.842268   0.000000
  126        8.232910   0.000000
  127        8.356506   0.000000
  128        8.356578   0.000000
  129        8.511097   0.000000
  130        8.698523   0.000000
  131        8.698926   0.000000
  132        8.778369   0.000000
  133        9.344478   0.000000
  134       10.078739   0.000000
  135       10.079047   0.000000
  136       10.248547   0.000000
  137       10.869629   0.000000
  138       11.032698   0.000000
  139       11.032803   0.000000
  140       11.737853   0.000000
  141       11.941574   0.000000
  142       12.014735   0.000000
  143       12.014848   0.000000
  144       12.194052   0.000000
  145       12.316056   0.000000
  146       12.452953   0.000000
  147       12.577076   0.000000
  148       12.577342   0.000000
  149       13.145340   0.000000
  150       13.145361   0.000000
  151       13.761352   0.000000
  152       13.761457   0.000000
  153       14.130667   0.000000
  154       14.130687   0.000000
  155       14.270835   0.000000
  156       14.270870   0.000000
  157       14.302927   0.000000
  158       14.572604   0.000000
  159       14.572946   0.000000
  160       15.247025   0.000000
  161       15.511843   0.000000
  162       15.511998   0.000000
  163       15.662582   0.000000
  164       15.939744   0.000000
  165       15.939860   0.000000
  166       16.148750   0.000000
  167       16.414739   0.000000
  168       16.748512   0.000000
  169       16.762236   0.000000
  170       16.762451   0.000000
  171       16.854273   0.000000
  172       17.322974   0.000000
  173       17.323001   0.000000
  174       17.718022   0.000000
  175       17.718073   0.000000
  176       17.798266   0.000000
  177       17.873625   0.000000
  178       17.873768   0.000000
  179       18.207337   0.000000
  180       18.268156   0.000000
  181       18.268504   0.000000
  182       19.043751   0.000000
  183       19.221866   0.000000
  184       19.533499   0.000000
  185       19.533548   0.000000
  186       19.580050   0.000000
  187       19.595645   0.000000
  188       20.174844   0.000000
  189       20.258679   0.000000
  190       20.699977   0.000000
  191       20.983940   0.000000
  192       21.133179   0.000000
  193       21.133560   0.000000
  194       21.269741   0.000000
  195       21.269819   0.000000
  196       21.369420   0.000000
  197       21.369647   0.000000
  198       21.668760   0.000000
  199       21.733948   0.000000
  200       21.739607   0.000000
  201       21.821309   0.000000
  202       21.969124   0.000000
  203       21.969225   0.000000
  204       22.254950   0.000000
  205       22.409782   0.000000
  206       22.527460   0.000000
  207       22.776352   0.000000
  208       22.810428   0.000000
  209       22.810511   0.000000
  210       23.044131   0.000000
  211       23.142134   0.000000
  212       23.465979   0.000000
  213       23.466036   0.000000
  214       23.470888   0.000000
  215       23.848096   0.000000
  216       24.076197   0.000000
  217       24.095872   0.000000
  218       24.226224   0.000000
  219       24.427011   0.000000
  220       24.812090   0.000000
  221       24.945282   0.000000
  222       24.945333   0.000000
  223       25.030023   0.000000
  224       25.030125   0.000000
  225       25.052604   0.000000
  226       25.138530   0.000000
  227       25.138567   0.000000
  228       25.305358   0.000000
  229       25.452114   0.000000
  230       25.452382   0.000000
  231       25.653337   0.000000
  232       25.872726   0.000000
  233       26.019886   0.000000
  234       26.092257   0.000000
  235       26.092363   0.000000
  236       26.230410   0.000000
  237       26.472023   0.000000
  238       26.557704   0.000000
  239       26.561373   0.000000
  240       26.561466   0.000000
  241       27.067836   0.000000
  242       27.068019   0.000000
  243       27.165712   0.000000
  244       27.764001   0.000000
  245       27.764253   0.000000
  246       27.772386   0.000000
  247       27.808502   0.000000
  248       27.971336   0.000000
  249       27.971557   0.000000
  250       28.106879   0.000000
  251       28.257850   0.000000
  252       28.257999   0.000000
  253       28.409296   0.000000
  254       28.597097   0.000000
  255       28.834284   0.000000
  256       28.946555   0.000000
  257       29.297900   0.000000
  258       29.298207   0.000000
  259       29.543125   0.000000
  260       29.686374   0.000000
  261       29.956631   0.000000
  262       30.052093   0.000000
  263       30.052131   0.000000
  264       30.191928   0.000000
  265       30.543533   0.000000
  266       30.579435   0.000000
  267       30.849148   0.000000
  268       30.849274   0.000000
  269       30.870647   0.000000
  270       30.956968   0.000000
  271       30.994984   0.000000
  272       31.067246   0.000000
  273       31.292550   0.000000
  274       31.319277   0.000000
  275       31.397601   0.000000
  276       31.459403   0.000000
  277       31.727123   0.000000
  278       31.727181   0.000000
  279       31.956447   0.000000
  280       31.956486   0.000000
  281       31.984515   0.000000
  282       32.048555   0.000000
  283       32.074159   0.000000
  284       32.341120   0.000000
  285       32.341710   0.000000
  286       32.796350   0.000000
  287       32.918562   0.000000
  288       32.929458   0.000000
 
  0.3750000E+00 -0.2775558E-16  0.0000000E+00  0.3125000E-01
    1       -5.341904   1.000000
    2       -4.273262   1.000000
    3       -3.689649   1.000000
    4       -3.311702   1.000000
    5       -2.843378   1.000000
    6       -2.265947   1.000000
    7       -2.248345   1.000000
    8       -2.171413   1.000000
    9       -2.171357   1.000000
   10       -1.932565   1.000000
   11       -1.932417   1.000000
   12       -1.775466   1.000000
   13       -1.650257   1.000000
   14       -1.609164   1.000000
   15       -1.609095   1.000000
   16       -1.565610   1.000000
   17       -1.565544   1.000000
   18       -1.530644   1.000000
   19       -1.331313   1.000000
   20       -1.331287   1.000000
   21       -1.264611   1.000000
   22       -1.134751   1.000000
   23       -1.134742   1.000000
   24       -1.064024   1.000000
   25       -1.044350   1.000000
   26       -1.044271   1.000000
   27       -1.043202   1.000000
   28       -0.900023   1.000000
   29       -0.899137   1.000000
   30       -0.898551   1.000000
   31       -0.781060   1.000000