  COHP#  atomMU  atomNU     distance     translation      ICOHP (at) eF   for spin  1
      1     Co1     Co2      2.55618       0   0   0           -1.92393 
      2     Co1     Co2      2.55664       0   1   0           -1.99885 
      3     Co1     Co3      2.55629       0   0   0           -1.79893 
      4     Co1     Co3      2.55653       1   0   0           -1.77446 
      5     Co1     Co4      2.55603       0   0   0           -1.94898 
      6     Co1     Co4      2.55678       1   1   0           -1.91465 
      7     Co1    Cu13      2.54363       0   0   0           -1.44376 
      8     Co1    Cu14      2.54355       0   1   0           -1.56779 
      9     Co1    Cu15      2.54324       0   0   0           -1.47314 
     10     Co1    Cu17      2.53348       0   0   0           -1.22974 
     11     Co1    Cu18      2.53367       0   0   0           -1.09755 
     12     Co1    Cu20      2.53262       0   1   0           -1.54701 
     13     Co2     Co3      2.55637       0  -1   0           -1.99134 
     14     Co2     Co3      2.55645       1   0   0           -1.92195 
     15     Co2     Co4      2.55612       0   0   0           -1.89075 
     16     Co2     Co4      2.55669       1   0   0           -1.89920 
     17     Co2    Cu13      2.54386       0   0   0           -1.49961 
     18     Co2    Cu14      2.54376       0   0   0           -1.60821 
     19     Co2    Cu16      2.54383       0   0   0           -1.53479 
     20     Co2    Cu17      2.53343       0   0   0           -1.34597 
     21     Co2    Cu18      2.53365       0  -1   0           -1.40737 
     22     Co2    Cu19      2.53343       1   0   0           -1.23200 
     23     Co3     Co4      2.55634       0   0   0           -1.82170 
     24     Co3     Co4      2.55647       0   1   0           -1.87612 
     25     Co3    Cu13      2.54394      -1   0   0           -1.47773 
     26     Co3    Cu15      2.54362       0   0   0           -1.36949 
     27     Co3    Cu16      2.54393       0   1   0           -1.64697 
     28     Co3    Cu18      2.53374       0   0   0           -1.03735 
     29     Co3    Cu19      2.53350       0   0   0           -1.19455 
     30     Co3    Cu20      2.53264      -1   1   0           -1.74909 
     31     Co4    Cu14      2.54351      -1   0   0           -1.55599 
     32     Co4    Cu15      2.54322       0   0   0           -1.55056 
     33     Co4    Cu16      2.54356       0   0   0           -1.38651 
     34     Co4    Cu17      2.53349       0   0   0           -1.24245 
     35     Co4    Cu19      2.53346       0   0   0           -1.02565 
     36     Co4    Cu20      2.53264      -1   0   0           -1.55792 
     37     Cu5     Cu6      2.55641       0   0   0           -1.39684 
     38     Cu5     Cu6      2.55641       0   1   0           -1.51998 
     39     Cu5     Cu7      2.55641       0   0   0           -1.56320 
     40     Cu5     Cu7      2.55641       1   0   0           -1.86420 
     41     Cu5     Cu8      2.55641       0   0   0           -1.24405 
     42     Cu5     Cu8      2.55641       1   1   0           -1.35967 
     43     Cu5     Cu9      2.55640       0   0   0           -1.75969 
     44     Cu5    Cu10      2.55641       0   0   0           -1.61337 
     45     Cu5    Cu12      2.55640       0   0   0           -1.33502 
     46     Cu6     Cu7      2.55641       0  -1   0           -1.31328 
     47     Cu6     Cu7      2.55641       1   0   0           -1.28592 
     48     Cu6     Cu8      2.55641       0   0   0           -1.65046 
     49     Cu6     Cu8      2.55641       1   0   0           -1.88042 
     50     Cu6     Cu9      2.55641       0   0   0           -1.51604 
     51     Cu6    Cu10      2.55640       0  -1   0           -1.81721 
     52     Cu6    Cu11      2.55640       0   0   0           -1.41962 
     53     Cu7     Cu8      2.55641       0   0   0           -1.73339 
     54     Cu7     Cu8      2.55641       0   1   0           -1.91126 
     55     Cu7    Cu10      2.55640       0   0   0           -1.45068 
     56     Cu7    Cu11      2.55640      -1   0   0           -1.36076 
     57     Cu7    Cu12      2.55641      -1   0   0           -1.25563 
     58     Cu8     Cu9      2.55640       0   0   0           -1.33339 
     59     Cu8    Cu11      2.55641      -1   0   0           -1.18141 
     60     Cu8    Cu12      2.55640      -1  -1   0           -1.28166 
     61     Cu9    Cu10      2.55641       0  -1   0           -0.82552 
     62     Cu9    Cu10      2.55641       0   0   0           -0.70493 
     63     Cu9    Cu11      2.55641      -1   0   0           -1.61284 
     64     Cu9    Cu11      2.55641       0   0   0           -1.52228 
     65     Cu9    Cu12      2.55641      -1  -1   0           -1.79872 
     66     Cu9    Cu12      2.55641       0   0   0           -1.44163 
     67     Cu9    Cu13      2.56027       0   0   0           -1.61002 
     68     Cu9    Cu15      2.56055       0   0   0           -1.35553 
     69     Cu9    Cu16      2.56026       0   0   0           -1.39033 
     70    Cu10    Cu11      2.55641      -1   0   0           -1.55792 
     71    Cu10    Cu11      2.55641       0   1   0           -1.49857 
     72    Cu10    Cu12      2.55641      -1   0   0           -1.54227 
     73    Cu10    Cu12      2.55641       0   0   0           -1.35468 
     74    Cu10    Cu14      2.56073       0   1   0           -1.67480 
     75    Cu10    Cu15      2.56083       0   0   0           -1.28978 
     76    Cu10    Cu16      2.56054       0   1   0           -1.31460 
     77    Cu11    Cu12      2.55641       0  -1   0           -1.25154 
     78    Cu11    Cu12      2.55641       0   0   0           -1.28073 
     79    Cu11    Cu13      2.56054       0   0   0           -1.53096 
     80    Cu11    Cu14      2.56073       0   0   0           -1.33952 
     81    Cu11    Cu15      2.56085       1   0   0           -1.55062 
     82    Cu12    Cu13      2.56045       0   0   0           -1.23731 
     83    Cu12    Cu14      2.56068       0   1   0           -1.64802 
     84    Cu12    Cu16      2.56046       1   1   0           -1.66069 
     85    Cu13    Cu14      2.55654       0   0   0           -1.46451 
     86    Cu13    Cu14      2.55628       0   1   0           -1.56620 
     87    Cu13    Cu15      2.55584       0   0   0           -1.16775 
     88    Cu13    Cu15      2.55697       1   0   0           -1.22865 
     89    Cu13    Cu16      2.55602       0   0   0           -1.27313 
     90    Cu13    Cu16      2.55680       1   1   0           -1.51338 
     91    Cu14    Cu15      2.55640       0  -1   0           -1.46636 
     92    Cu14    Cu15      2.55642       1   0   0           -1.40736 
     93    Cu14    Cu16      2.55654       0   0   0           -1.17719 
     94    Cu14    Cu16      2.55628       1   0   0           -1.11306 
     95    Cu15    Cu16      2.55584       0   0   0           -1.40083 
     96    Cu15    Cu16      2.55697       0   1   0           -1.53595 
     97    Cu17    Cu18      2.55665       0  -1   0           -1.89638 
     98    Cu17    Cu18      2.55617       0   0   0           -1.50107 
     99    Cu17    Cu19      2.55611       0   0   0           -1.77581 
    100    Cu17    Cu19      2.55670       1   0   0           -1.56779 
    101    Cu17    Cu20      2.55637      -1   0   0           -1.79031 
    102    Cu17    Cu20      2.55645       0   1   0           -1.90635 
    103    Cu18    Cu19      2.55636       0   0   0           -2.04195 
    104    Cu18    Cu19      2.55646       1   1   0           -2.09443 
    105    Cu18    Cu20      2.55662      -1   1   0           -2.15590 
    106    Cu18    Cu20      2.55620       0   1   0           -2.30771 
    107    Cu19    Cu20      2.55617      -1   0   0           -2.48023 
    108    Cu19    Cu20      2.55665      -1   1   0           -2.58505 
