       N       E                     dE             d eps       ncg     rms          rms(c)
DAV:   1     0.162223262304E+04    0.16222E+04   -0.51452E+04 21760   0.697E+02
DAV:   2     0.184920231229E+03   -0.14373E+04   -0.12684E+04 19584   0.194E+02
DAV:   3    -0.891383858747E+02   -0.27406E+03   -0.24551E+03 21088   0.866E+01
DAV:   4    -0.100638247553E+03   -0.11500E+02   -0.11417E+02 22912   0.239E+01
DAV:   5    -0.100848441678E+03   -0.21019E+00   -0.21013E+00 28640   0.276E+00    0.366E+01
DAV:   6    -0.133019712973E+03   -0.32171E+02   -0.34176E+02 27424   0.115E+02    0.601E+01
DAV:   7    -0.112379597529E+03    0.20640E+02   -0.35434E+02 27072   0.485E+01    0.446E+01
DAV:   8    -0.837026263090E+02    0.28677E+02   -0.20540E+01 28928   0.350E+01    0.127E+01
DAV:   9    -0.827127470607E+02    0.98988E+00   -0.20404E+01 29216   0.279E+01    0.882E+00
DAV:  10    -0.819628280214E+02    0.74992E+00   -0.57040E+00 31392   0.181E+01    0.706E+00
DAV:  11    -0.823359710051E+02   -0.37314E+00   -0.79077E+00 22752   0.468E+00    0.118E+01
DAV:  12    -0.819608699161E+02    0.37510E+00   -0.59561E+00 31936   0.626E+00    0.453E+00
DAV:  13    -0.819330577120E+02    0.27812E-01   -0.11096E+00 25344   0.206E+00    0.450E+00
DAV:  14    -0.818237555355E+02    0.10930E+00   -0.49671E-01 27200   0.306E+00    0.226E+00
DAV:  15    -0.817986935925E+02    0.25062E-01   -0.37413E-01 27584   0.175E+00    0.302E+00
DAV:  16    -0.817715819492E+02    0.27112E-01   -0.31578E-01 25920   0.934E-01    0.117E+00
DAV:  17    -0.817681856723E+02    0.33963E-02   -0.86484E-02 27008   0.725E-01    0.789E-01
DAV:  18    -0.817631513022E+02    0.50344E-02   -0.24833E-02 28544   0.767E-01    0.286E-01
DAV:  19    -0.817621767873E+02    0.97451E-03   -0.30397E-03 25472   0.482E-01    0.209E-01
DAV:  20    -0.817619743463E+02    0.20244E-03   -0.29618E-03 23520   0.280E-01    0.201E-01
DAV:  21    -0.817618253804E+02    0.14897E-03   -0.10641E-03 21824   0.150E-01    0.889E-02
DAV:  22    -0.817621480988E+02   -0.32272E-03   -0.62857E-04 18688   0.139E-01    0.912E-02
DAV:  23    -0.817624725445E+02   -0.32445E-03   -0.10310E-04 20576   0.736E-02    0.698E-02
DAV:  24    -0.817629393732E+02   -0.46683E-03   -0.77026E-05 20544   0.612E-02    0.626E-02
DAV:  25    -0.817631632115E+02   -0.22384E-03   -0.83744E-05 20480   0.565E-02    0.214E-02
DAV:  26    -0.817633145470E+02   -0.15134E-03   -0.30025E-05 19712   0.357E-02    0.124E-02
DAV:  27    -0.817633940116E+02   -0.79465E-04   -0.27314E-05 20128   0.308E-02
   1 F= -.81763394E+02 E0= -.81751130E+02  d E =-.245280E-01
