 vasp.5.4.4.18Apr17-6-g9f103f2a35 (build Sep 24 2019 01:11:21) complex          
  
 executed on             LinuxIFC date 2020.08.14  21:39:35
 running on   32 total cores
 distrk:  each k-point on   32 cores,    1 groups
 distr:  one band on NCORES_PER_BAND=   1 cores,   32 groups


--------------------------------------------------------------------------------------------------------


 INCAR:
 POTCAR:    PAW_PBE Co 02Aug2007                  
 POTCAR:    PAW_PBE Cu 22Jun2005                  

 ----------------------------------------------------------------------------- 
|                                                                             |
|           W    W    AA    RRRRR   N    N  II  N    N   GGGG   !!!           |
|           W    W   A  A   R    R  NN   N  II  NN   N  G    G  !!!           |
|           W    W  A    A  R    R  N N  N  II  N N  N  G       !!!           |
|           W WW W  AAAAAA  RRRRR   N  N N  II  N  N N  G  GGG   !            |
|           WW  WW  A    A  R   R   N   NN  II  N   NN  G    G                |
|           W    W  A    A  R    R  N    N  II  N    N   GGGG   !!!           |
|                                                                             |
|      For optimal performance we recommend to set                            |
|        NCORE= 4 - approx SQRT( number of cores)                             |
|      NCORE specifies how many cores store one orbital (NPAR=cpu/NCORE).     |
|      This setting can  greatly improve the performance of VASP for DFT.     |
|      The default,   NCORE=1            might be grossly inefficient         |
|      on modern multi-core architectures or massively parallel machines.     |
|      Do your own testing !!!!                                               |
|      Unfortunately you need to use the default for GW and RPA calculations. |
|      (for HF NCORE is supported but not extensively tested yet)             |
|                                                                             |
 ----------------------------------------------------------------------------- 

 POTCAR:    PAW_PBE Co 02Aug2007                  
   VRHFIN =Co: d8 s1                                                            
   LEXCH  = PE                                                                  
   EATOM  =   813.3670 eV,   59.7808 Ry                                         
                                                                                
   TITEL  = PAW_PBE Co 02Aug2007                                                
   LULTRA =        F    use ultrasoft PP ?                                      
   IUNSCR =        1    unscreen: 0-lin 1-nonlin 2-no                           
   RPACOR =    2.000    partial core radius                                     
   POMASS =   58.933; ZVAL   =    9.000    mass and valenz                      
   RCORE  =    2.300    outmost cutoff radius                                   
   RWIGS  =    2.460; RWIGS  =    1.302    wigner-seitz radius (au A)           
   ENMAX  =  267.968; ENMIN  =  200.976 eV                                      
   RCLOC  =    1.203    cutoff for local pot                                    
   LCOR   =        T    correct aug charges                                     
   LPAW   =        T    paw PP                                                  
   EAUG   =  477.818                                                            
   DEXC   =    0.000                                                            
   RMAX   =    2.360    core radius for proj-oper                               
   RAUG   =    1.300    factor for augmentation sphere                          
   RDEP   =    2.393    radius for radial grids                                 
   RDEPT  =    1.864    core radius for aug-charge                              
                                                                                
   Atomic configuration                                                         
    9 entries                                                                   
     n  l   j            E        occ.                                          
     1  0  0.50     -7587.6674   2.0000                                         
     2  0  0.50      -893.6084   2.0000                                         
     2  1  1.50      -764.5805   6.0000                                         
     3  0  0.50       -97.5973   2.0000                                         
     3  1  1.50       -60.9648   6.0000                                         
     3  2  2.50        -4.2382   8.0000                                         
     4  0  0.50        -4.3746   1.0000                                         
     4  1  1.50        -4.0817   0.0000                                         
     4  3  2.50        -1.3606   0.0000                                         
   Description                                                                  
     l       E           TYP  RCUT    TYP  RCUT                                 
     2     -4.2382362     23  2.300                                             
     2     -5.5988188     23  2.300                                             
     0     -4.3745797     23  2.300                                             
     0      5.7660125     23  2.300                                             
     1     -2.7211652     23  2.300                                             
     1     16.9860234     23  2.300                                             
  local pseudopotential read in
  partial core-charges read in
  partial kinetic energy density read in
  atomic valenz-charges read in
  non local Contribution for L=           2  read in
    real space projection operators read in
  non local Contribution for L=           2  read in
    real space projection operators read in
  non local Contribution for L=           0  read in
    real space projection operators read in
  non local Contribution for L=           0  read in
    real space projection operators read in
  non local Contribution for L=           1  read in
    real space projection operators read in
  non local Contribution for L=           1  read in
    real space projection operators read in
    PAW grid and wavefunctions read in
 
   number of l-projection  operators is LMAX  =           6
   number of lm-projection operators is LMMAX =          18
 
 POTCAR:    PAW_PBE Cu 22Jun2005                  
   VRHFIN =Cu: d10 p1                                                           
   LEXCH  = PE                                                                  
   EATOM  =  1390.9808 eV,  102.2342 Ry                                         
                                                                                
   TITEL  = PAW_PBE Cu 22Jun2005                                                
   LULTRA =        F    use ultrasoft PP ?                                      
   IUNSCR =        1    unscreen: 0-lin 1-nonlin 2-no                           
   RPACOR =    2.000    partial core radius                                     
   POMASS =   63.546; ZVAL   =   11.000    mass and valenz                      
   RCORE  =    2.300    outmost cutoff radius                                   
   RWIGS  =    2.200; RWIGS  =    1.164    wigner-seitz radius (au A)           
   ENMAX  =  295.446; ENMIN  =  221.585 eV                                      
   ICORE  =        3    local potential                                         
   LCOR   =        T    correct aug charges                                     
   LPAW   =        T    paw PP                                                  
   EAUG   =  586.980                                                            
   DEXC   =    0.000                                                            
   RMAX   =    2.344    core radius for proj-oper                               
   RAUG   =    1.300    factor for augmentation sphere                          
   RDEP   =    2.302    radius for radial grids                                 
   RDEPT  =    1.771    core radius for aug-charge                              
                                                                                
   Atomic configuration                                                         
    9 entries                                                                   
     n  l   j            E        occ.                                          
     1  0  0.50     -8850.2468   2.0000                                         
     2  0  0.50     -1062.3498   2.0000                                         
     2  1  1.50      -916.8226   6.0000                                         
     3  0  0.50      -114.6929   2.0000                                         
     3  1  1.50       -72.1325   6.0000                                         
     3  2  2.50        -5.0394  10.0000                                         
     4  0  0.50        -4.6097   1.0000                                         
     4  1  0.50        -4.0817   0.0000                                         
     4  3  2.50        -1.3606   0.0000                                         
   Description                                                                  
     l       E           TYP  RCUT    TYP  RCUT                                 
     2     -5.0393973     23  2.200                                             
     2     10.8846608     23  2.200                                             
     0     -4.6097109     23  2.200                                             
     0      8.2520465     23  2.200                                             
     1     -2.7211652     23  2.200                                             
     1     21.7055443     23  2.200                                             
     3      2.7211652     23  2.300                                             
  local pseudopotential read in
  partial core-charges read in
  partial kinetic energy density read in
  atomic valenz-charges read in
  non local Contribution for L=           2  read in
    real space projection operators read in
  non local Contribution for L=           2  read in
    real space projection operators read in
  non local Contribution for L=           0  read in
    real space projection operators read in
  non local Contribution for L=           0  read in
    real space projection operators read in
  non local Contribution for L=           1  read in
    real space projection operators read in
  non local Contribution for L=           1  read in
    real space projection operators read in
    PAW grid and wavefunctions read in
 
   number of l-projection  operators is LMAX  =           6
   number of lm-projection operators is LMMAX =          18
 

 ----------------------------------------------------------------------------- 
|                                                                             |
|  ADVICE TO THIS USER RUNNING 'VASP/VAMP'   (HEAR YOUR MASTER'S VOICE ...):  |
|                                                                             |
|      You have a (more or less) 'large supercell' and for larger cells       |
|      it might be more efficient to use real space projection opertators     |
|      So try LREAL= Auto  in the INCAR   file.                               |
|      Mind:          For very  accurate calculation you might also keep the  |
|      reciprocal projection scheme          (i.e. LREAL=.FALSE.)             |
|                                                                             |
 ----------------------------------------------------------------------------- 

  PAW_PBE Co 02Aug2007                  :
 energy of atom  1       EATOM= -813.3670
 kinetic energy error for atom=    0.0289 (will be added to EATOM!!)
  PAW_PBE Cu 22Jun2005                  :
 energy of atom  2       EATOM=-1390.9808
 kinetic energy error for atom=    0.0452 (will be added to EATOM!!)
 
 
 POSCAR: Co_Cu_stable_slab                       
  positions in direct lattice
  velocities in cartesian coordinates
 exchange correlation table for  LEXCH =        8
   RHO(1)=    0.500       N(1)  =     2000
   RHO(2)=  100.500       N(2)  =     4000
 


--------------------------------------------------------------------------------------------------------


 ion  position               nearest neighbor table
   1  0.333  0.167  0.341-  20 2.53  17 2.53  18 2.53  15 2.54  14 2.54  13 2.54   4 2.56   2 2.56
                             3 2.56   3 2.56   2 2.56   4 2.56
   2  0.333  0.667  0.341-  19 2.53  17 2.53  18 2.53  14 2.54  16 2.54  13 2.54   4 2.56   1 2.56
                             3 2.56   3 2.56   1 2.56   4 2.56
   3  0.833  0.167  0.341-  20 2.53  19 2.53  18 2.53  15 2.54  16 2.54  13 2.54   1 2.56   4 2.56
                             2 2.56   2 2.56   4 2.56   1 2.56
   4  0.833  0.667  0.341-  20 2.53  19 2.53  17 2.53  15 2.54  14 2.54  16 2.54   1 2.56   2 2.56
                             3 2.56   3 2.56   2 2.56   1 2.56
   5  0.333  0.167  0.000-  12 2.56   9 2.56  10 2.56   7 2.56   7 2.56   8 2.56   8 2.56   6 2.56
                             6 2.56
   6  0.333  0.667  0.000-  11 2.56  10 2.56   9 2.56   8 2.56   8 2.56   7 2.56   7 2.56   5 2.56
                             5 2.56
   7  0.833  0.167  0.000-  10 2.56  11 2.56  12 2.56   5 2.56   5 2.56   6 2.56   6 2.56   8 2.56
                             8 2.56
   8  0.833  0.667  0.000-   9 2.56  12 2.56  11 2.56   6 2.56   6 2.56   5 2.56   5 2.56   7 2.56
                             7 2.56
   9  0.500  0.500  0.114-   8 2.56   5 2.56   6 2.56  11 2.56  11 2.56  12 2.56  12 2.56  10 2.56
                            10 2.56  16 2.56  13 2.56  15 2.56
  10  0.500  0.000  0.114-   7 2.56   6 2.56   5 2.56  12 2.56  12 2.56  11 2.56  11 2.56   9 2.56
                             9 2.56  16 2.56  14 2.56  15 2.56
  11  0.000  0.500  0.114-   6 2.56   7 2.56   8 2.56   9 2.56   9 2.56  10 2.56  10 2.56  12 2.56
                            12 2.56  13 2.56  14 2.56  15 2.56
  12  0.000  0.000  0.114-   5 2.56   8 2.56   7 2.56  10 2.56  10 2.56   9 2.56   9 2.56  11 2.56
                            11 2.56  13 2.56  16 2.56  14 2.56
  13  0.167  0.333  0.228-   1 2.54   2 2.54   3 2.54  15 2.56  16 2.56  14 2.56  14 2.56  16 2.56
                            15 2.56   9 2.56  12 2.56  11 2.56
  14  0.167  0.833  0.228-   4 2.54   1 2.54   2 2.54  13 2.56  16 2.56  15 2.56  15 2.56  16 2.56
                            13 2.56  12 2.56  11 2.56  10 2.56
  15  0.667  0.333  0.228-   4 2.54   1 2.54   3 2.54  13 2.56  16 2.56  14 2.56  14 2.56  16 2.56
                            13 2.56   9 2.56  10 2.56  11 2.56
  16  0.667  0.833  0.228-   4 2.54   2 2.54   3 2.54  15 2.56  13 2.56  14 2.56  14 2.56  13 2.56
                            15 2.56   9 2.56  12 2.56  10 2.56
  17  0.500  0.500  0.453-   2 2.53   1 2.53   4 2.53  19 2.56  18 2.56  20 2.56  20 2.56  18 2.56
                            19 2.56
  18  0.500  0.000  0.453-   2 2.53   1 2.53   3 2.53  17 2.56  20 2.56  19 2.56  19 2.56  20 2.56
                            17 2.56
  19  1.000  0.500  0.453-   2 2.53   4 2.53   3 2.53  17 2.56  20 2.56  18 2.56  18 2.56  20 2.56
                            17 2.56
  20  0.000  1.000  0.453-   1 2.53   4 2.53   3 2.53  19 2.56  18 2.56  17 2.56  17 2.56  18 2.56
                            19 2.56
 
  LATTYP: Found a hexagonal cell.
 ALAT       =     5.1128150316
 C/A-ratio  =     3.5888632246
  
  Lattice vectors:
  
 A1 = (   5.1128150000,   0.0000000000,   0.0000000000)
 A2 = (  -2.5564080000,   4.4278280000,   0.0000000000)
 A3 = (   0.0000000000,   0.0000000000,  18.3491938412)


Analysis of symmetry for initial positions (statically):
=====================================================================
 Subroutine PRICEL returns:
 Original cell was already a primitive cell.
 

 Routine SETGRP: Setting up the symmetry group for a 
 hexagonal supercell.


 Subroutine GETGRP returns: Found  1 space group operations
 (whereof  1 operations were pure point group operations)
 out of a pool of 24 trial point group operations.


The static configuration has the point symmetry C_1 .


Analysis of symmetry for dynamics (positions and initial velocities):
=====================================================================
 Subroutine PRICEL returns:
 Original cell was already a primitive cell.
 

 Routine SETGRP: Setting up the symmetry group for a 
 hexagonal supercell.


 Subroutine GETGRP returns: Found  1 space group operations
 (whereof  1 operations were pure point group operations)
 out of a pool of 24 trial point group operations.


The dynamic configuration has the point symmetry C_1 .


Analysis of constrained symmetry for selective dynamics:
=====================================================================
 Subroutine PRICEL returns:
 Original cell was already a primitive cell.
 

 Routine SETGRP: Setting up the symmetry group for a 
 hexagonal supercell.


 Subroutine GETGRP returns: Found  1 space group operations
 (whereof  1 operations were pure point group operations)
 out of a pool of 24 trial point group operations.


The constrained configuration has the point symmetry C_1 .


 Subroutine INISYM returns: Found  1 space group operations
 (whereof  1 operations are pure point group operations),
 and found     1 'primitive' translations

 
 
 KPOINTS: Generated by pymatgen's MVLGBSet        

Automatic generation of k-mesh.
Space group operators:
 irot       det(A)        alpha          n_x          n_y          n_z        tau_x        tau_y        tau_z
    1     1.000000     0.000000     1.000000     0.000000     0.000000     0.000000     0.000000     0.000000
 
 Subroutine IBZKPT returns following result:
 ===========================================
 
 Found     34 irreducible k-points:
 
 Following reciprocal coordinates:
            Coordinates               Weight
  0.000000  0.000000  0.000000      1.000000
  0.125000  0.000000  0.000000      2.000000
  0.250000  0.000000  0.000000      2.000000
  0.375000 -0.000000  0.000000      2.000000
  0.500000  0.000000  0.000000      1.000000
  0.000000  0.125000  0.000000      2.000000
  0.125000  0.125000  0.000000      2.000000
  0.250000  0.125000  0.000000      2.000000
  0.375000  0.125000  0.000000      2.000000
  0.500000  0.125000  0.000000      2.000000
 -0.375000  0.125000  0.000000      2.000000
 -0.250000  0.125000  0.000000      2.000000
 -0.125000  0.125000  0.000000      2.000000
  0.000000  0.250000  0.000000      2.000000
  0.125000  0.250000  0.000000      2.000000
  0.250000  0.250000  0.000000      2.000000
  0.375000  0.250000  0.000000      2.000000
  0.500000  0.250000  0.000000      2.000000
 -0.375000  0.250000  0.000000      2.000000
 -0.250000  0.250000  0.000000      2.000000
 -0.125000  0.250000  0.000000      2.000000
  0.000000  0.375000  0.000000      2.000000
  0.125000  0.375000  0.000000      2.000000
  0.250000  0.375000  0.000000      2.000000
  0.375000  0.375000  0.000000      2.000000
  0.500000  0.375000  0.000000      2.000000
 -0.375000  0.375000  0.000000      2.000000
 -0.250000  0.375000  0.000000      2.000000
 -0.125000  0.375000  0.000000      2.000000
  0.000000  0.500000  0.000000      1.000000
  0.125000  0.500000  0.000000      2.000000
  0.250000  0.500000  0.000000      2.000000
  0.375000  0.500000  0.000000      2.000000
  0.500000  0.500000  0.000000      1.000000
 
 Following cartesian coordinates:
            Coordinates               Weight
  0.000000  0.000000  0.000000      1.000000
  0.024448  0.014115  0.000000      2.000000
  0.048897  0.028231  0.000000      2.000000
  0.073345  0.042346  0.000000      2.000000
  0.097793  0.056461  0.000000      1.000000
  0.000000  0.028231  0.000000      2.000000
  0.024448  0.042346  0.000000      2.000000
  0.048897  0.056461  0.000000      2.000000
  0.073345  0.070576  0.000000      2.000000
  0.097793  0.084692  0.000000      2.000000
 -0.073345 -0.014115  0.000000      2.000000
 -0.048897 -0.000000  0.000000      2.000000
 -0.024448  0.014115  0.000000      2.000000
  0.000000  0.056461  0.000000      2.000000
  0.024448  0.070576  0.000000      2.000000
  0.048897  0.084692  0.000000      2.000000
  0.073345  0.098807  0.000000      2.000000
  0.097793  0.112922  0.000000      2.000000
 -0.073345  0.014115  0.000000      2.000000
 -0.048897  0.028231  0.000000      2.000000
 -0.024448  0.042346  0.000000      2.000000
  0.000000  0.084692  0.000000      2.000000
  0.024448  0.098807  0.000000      2.000000
  0.048897  0.112922  0.000000      2.000000
  0.073345  0.127037  0.000000      2.000000
  0.097793  0.141153  0.000000      2.000000
 -0.073345  0.042346  0.000000      2.000000
 -0.048897  0.056461  0.000000      2.000000
 -0.024448  0.070576  0.000000      2.000000
  0.000000  0.112922  0.000000      1.000000
  0.024448  0.127037  0.000000      2.000000
  0.048897  0.141153  0.000000      2.000000
  0.073345  0.155268  0.000000      2.000000
  0.097793  0.169383  0.000000      1.000000
 

 ----------------------------------------------------------------------------- 
|                                                                             |
|           W    W    AA    RRRRR   N    N  II  N    N   GGGG   !!!           |
|           W    W   A  A   R    R  NN   N  II  NN   N  G    G  !!!           |
|           W    W  A    A  R    R  N N  N  II  N N  N  G       !!!           |
|           W WW W  AAAAAA  RRRRR   N  N N  II  N  N N  G  GGG   !            |
|           WW  WW  A    A  R   R   N   NN  II  N   NN  G    G                |
|           W    W  A    A  R    R  N    N  II  N    N   GGGG   !!!           |
|                                                                             |
|      The number of bands has been changed from the values supplied          |
|      in the INCAR file. This is a result of running the parallel version.   |
|      The orbitals not found in the WAVECAR file will be initialized with    |
|      random numbers, which is usually adequate. For correlated              |
|      calculations, however, you should redo the groundstate calculation.    |
|      I found NBANDS    =      280  now  NBANDS  =     288                   |
|                                                                             |
 ----------------------------------------------------------------------------- 



--------------------------------------------------------------------------------------------------------




 Dimension of arrays:
   k-points           NKPTS =     34   k-points in BZ     NKDIM =     34   number of bands    NBANDS=    288
   number of dos      NEDOS =    301   number of ions     NIONS =     20
   non local maximal  LDIM  =      6   non local SUM 2l+1 LMDIM =     18
   total plane-waves  NPLWV =  46080
   max r-space proj   IRMAX =      1   max aug-charges    IRDMAX=   4574
   dimension x,y,z NGX =    24 NGY =   24 NGZ =   80
   dimension x,y,z NGXF=    48 NGYF=   48 NGZF=  160
   support grid    NGXF=    48 NGYF=   48 NGZF=  160
   ions per type =               4  16
   NGX,Y,Z   is equivalent  to a cutoff of   7.80,  7.80,  7.25 a.u.
   NGXF,Y,Z  is equivalent  to a cutoff of  15.61, 15.61, 14.50 a.u.

 SYSTEM =  unknown system                          
 POSCAR =  Co_Cu_stable_slab                       

 Startparameter for this run:
   NWRITE =      2    write-flag & timer
   PREC   = normal    normal or accurate (medium, high low for compatibility)
   ISTART =      0    job   : 0-new  1-cont  2-samecut
   ICHARG =      2    charge: 1-file 2-atom 10-const
   ISPIN  =      1    spin polarized calculation?
   LNONCOLLINEAR =      F non collinear calculations
   LSORBIT =      F    spin-orbit coupling
   INIWAV =      1    electr: 0-lowe 1-rand  2-diag
   LASPH  =      F    aspherical Exc in radial PAW
   METAGGA=      F    non-selfconsistent MetaGGA calc.

 Electronic Relaxation 1
   ENCUT  =  295.4 eV  21.71 Ry    4.66 a.u.   7.17  7.17 25.72*2*pi/ulx,y,z
   ENINI  =  295.4     initial cutoff
   ENAUG  =  587.0 eV  augmentation charge cutoff
   NELM   =     60;   NELMIN=  2; NELMDL= -5     # of ELM steps 
   EDIFF  = 0.1E-03   stopping-criterion for ELM
   LREAL  =      F    real-space projection
   NLSPLINE    = F    spline interpolate recip. space projectors
   LCOMPAT=      F    compatible to vasp.4.4
   GGA_COMPAT  = T    GGA compatible to vasp.4.4-vasp.4.6
   LMAXPAW     = -100 max onsite density
   LMAXMIX     =    2 max onsite mixed and CHGCAR
   VOSKOWN=      0    Vosko Wilk Nusair interpolation
   ROPT   =    0.00000   0.00000
 Ionic relaxation
   EDIFFG = 0.1E-02   stopping-criterion for IOM
   NSW    =      0    number of steps for IOM
   NBLOCK =      1;   KBLOCK =      1    inner block; outer block 
   IBRION =     -1    ionic relax: 0-MD 1-quasi-New 2-CG
   NFREE  =      0    steps in history (QN), initial steepest desc. (CG)
   ISIF   =      2    stress and relaxation
   IWAVPR =     10    prediction:  0-non 1-charg 2-wave 3-comb
   ISYM   =      2    0-nonsym 1-usesym 2-fastsym
   LCORR  =      T    Harris-Foulkes like correction to forces

   POTIM  = 0.5000    time-step for ionic-motion
   TEIN   =    0.0    initial temperature
   TEBEG  =    0.0;   TEEND  =   0.0 temperature during run
   SMASS  =  -3.00    Nose mass-parameter (am)
   estimated Nose-frequenzy (Omega)   =  0.10E-29 period in steps =****** mass=  -0.597E-27a.u.
   SCALEE = 1.0000    scale energy and forces
   NPACO  =    256;   APACO  = 16.0  distance and # of slots for P.C.
   PSTRESS=    0.0 pullay stress

  Mass of Ions in am
   POMASS =  58.93 63.55
  Ionic Valenz
   ZVAL   =   9.00 11.00
  Atomic Wigner-Seitz radii
   RWIGS  =  -1.00 -1.00
  virtual crystal weights 
   VCA    =   1.00  1.00
   NELECT =     212.0000    total number of electrons
   NUPDOWN=      -1.0000    fix difference up-down

 DOS related values:
   EMIN   =  10.00;   EMAX   =-10.00  energy-range for DOS
   EFERMI =   0.00
   ISMEAR =     0;   SIGMA  =   0.05  broadening in eV -4-tet -1-fermi 0-gaus

 Electronic relaxation 2 (details)
   IALGO  =     38    algorithm
   LDIAG  =      T    sub-space diagonalisation (order eigenvalues)
   LSUBROT=      F    optimize rotation matrix (better conditioning)
   TURBO    =      0    0=normal 1=particle mesh
   IRESTART =      0    0=no restart 2=restart with 2 vectors
   NREBOOT  =      0    no. of reboots
   NMIN     =      0    reboot dimension
   EREF     =   0.00    reference energy to select bands
   IMIX   =      4    mixing-type and parameters
     AMIX     =   0.40;   BMIX     =  1.00
     AMIX_MAG =   1.60;   BMIX_MAG =  1.00
     AMIN     =   0.10
     WC   =   100.;   INIMIX=   1;  MIXPRE=   1;  MAXMIX= -45

 Intra band minimization:
   WEIMIN = 0.0000     energy-eigenvalue tresh-hold
   EBREAK =  0.87E-07  absolut break condition
   DEPER  =   0.30     relativ break condition  

   TIME   =   0.40     timestep for ELM

  volume/ion in A,a.u.               =      20.77       140.16
  Fermi-wavevector in a.u.,A,eV,Ry     =   1.308270  2.472273 23.287343  1.711571
  Thomas-Fermi vector in A             =   2.438949
 
 Write flags
   LWAVE        =      T    write WAVECAR
   LDOWNSAMPLE  =      F    k-point downsampling of WAVECAR
   LCHARG       =      T    write CHGCAR
   LVTOT        =      F    write LOCPOT, total local potential
   LVHAR        =      F    write LOCPOT, Hartree potential only
   LELF         =      F    write electronic localiz. function (ELF)
   LORBIT       =      0    0 simple, 1 ext, 2 COOP (PROOUT), +10 PAW based schemes


 Dipole corrections
   LMONO  =      F    monopole corrections only (constant potential shift)
   LDIPOL =      F    correct potential (dipole corrections)
   IDIPOL =      0    1-x, 2-y, 3-z, 4-all directions 
   EPSILON=  1.0000000 bulk dielectric constant

 Exchange correlation treatment:
   GGA     =    --    GGA type
   LEXCH   =     8    internal setting for exchange type
   VOSKOWN=      0    Vosko Wilk Nusair interpolation
   LHFCALC =     F    Hartree Fock is set to
   LHFONE  =     F    Hartree Fock one center treatment
   AEXX    =    0.0000 exact exchange contribution

 Linear response parameters
   LEPSILON=     F    determine dielectric tensor
   LRPA    =     F    only Hartree local field effects (RPA)
   LNABLA  =     F    use nabla operator in PAW spheres
   LVEL    =     F    velocity operator in full k-point grid
   LINTERFAST=   F  fast interpolation
   KINTER  =     0    interpolate to denser k-point grid
   CSHIFT  =0.1000    complex shift for real part using Kramers Kronig
   OMEGAMAX=  -1.0    maximum frequency
   DEG_THRESHOLD= 0.2000000E-02 threshold for treating states as degnerate
   RTIME   =   -0.100 relaxation time in fs
  (WPLASMAI=    0.000 imaginary part of plasma frequency in eV, 0.658/RTIME)
   DFIELD  = 0.0000000 0.0000000 0.0000000 field for delta impulse in time
 
 Orbital magnetization related:
   ORBITALMAG=     F  switch on orbital magnetization
   LCHIMAG   =     F  perturbation theory with respect to B field
   DQ        =  0.001000  dq finite difference perturbation B field
   LLRAUG    =     F  two centre corrections for induced B field



--------------------------------------------------------------------------------------------------------


 Static calculation
 charge density and potential will be updated during run
 non-spin polarized calculation
 Variant of blocked Davidson
 Davidson routine will perform the subspace rotation
 perform sub-space diagonalisation
    after iterative eigenvector-optimisation
 modified Broyden-mixing scheme, WC =      100.0
 initial mixing is a Kerker type mixing with AMIX =  0.4000 and BMIX =      1.0000
 Hartree-type preconditioning will be used
 using additional bands          182
 reciprocal scheme for non local part
 use partial core corrections
 calculate Harris-corrections to forces 
   (improved forces if not selfconsistent)
 use gradient corrections 
 use of overlap-Matrix (Vanderbilt PP)
 Gauss-broadening in eV      SIGMA  =   0.05


--------------------------------------------------------------------------------------------------------


  energy-cutoff  :      295.45
  volume of cell :      415.40
      direct lattice vectors                 reciprocal lattice vectors
     5.112815000  0.000000000  0.000000000     0.195586971  0.112922204  0.000000000
    -2.556408000  4.427828000  0.000000000     0.000000000  0.225844364  0.000000000
     0.000000000  0.000000000 18.349193841     0.000000000  0.000000000  0.054498307

  length of vectors
     5.112815000  5.112815532 18.349193841     0.225844388  0.225844364  0.054498307


 
 k-points in units of 2pi/SCALE and weight: Generated by pymatgen's MVLGBSet        
   0.00000000  0.00000000  0.00000000       0.016
   0.02444837  0.01411528  0.00000000       0.031
   0.04889674  0.02823055  0.00000000       0.031
   0.07334511  0.04234583  0.00000000       0.031
   0.09779349  0.05646110  0.00000000       0.016
   0.00000000  0.02823055  0.00000000       0.031
   0.02444837  0.04234582  0.00000000       0.031
   0.04889674  0.05646110  0.00000000       0.031
   0.07334511  0.07057637  0.00000000       0.031
   0.09779349  0.08469165  0.00000000       0.031
  -0.07334511 -0.01411528  0.00000000       0.031
  -0.04889674 -0.00000001  0.00000000       0.031
  -0.02444837  0.01411527  0.00000000       0.031
   0.00000000  0.05646109  0.00000000       0.031
   0.02444837  0.07057637  0.00000000       0.031
   0.04889674  0.08469164  0.00000000       0.031
   0.07334511  0.09880692  0.00000000       0.031
   0.09779349  0.11292219  0.00000000       0.031
  -0.07334511  0.01411526  0.00000000       0.031
  -0.04889674  0.02823054  0.00000000       0.031
  -0.02444837  0.04234582  0.00000000       0.031
   0.00000000  0.08469164  0.00000000       0.031
   0.02444837  0.09880691  0.00000000       0.031
   0.04889674  0.11292219  0.00000000       0.031
   0.07334511  0.12703746  0.00000000       0.031
   0.09779349  0.14115274  0.00000000       0.031
  -0.07334511  0.04234581  0.00000000       0.031
  -0.04889674  0.05646109  0.00000000       0.031
  -0.02444837  0.07057636  0.00000000       0.031
   0.00000000  0.11292218  0.00000000       0.016
   0.02444837  0.12703746  0.00000000       0.031
   0.04889674  0.14115273  0.00000000       0.031
   0.07334511  0.15526801  0.00000000       0.031
   0.09779349  0.16938328  0.00000000       0.016
 
 k-points in reciprocal lattice and weights: Generated by pymatgen's MVLGBSet        
   0.00000000  0.00000000  0.00000000       0.016
   0.12500000  0.00000000  0.00000000       0.031
   0.25000000  0.00000000  0.00000000       0.031
   0.37500000 -0.00000000  0.00000000       0.031
   0.50000000  0.00000000  0.00000000       0.016
   0.00000000  0.12500000  0.00000000       0.031
   0.12500000  0.12500000  0.00000000       0.031
   0.25000000  0.12500000  0.00000000       0.031
   0.37500000  0.12500000  0.00000000       0.031
   0.50000000  0.12500000  0.00000000       0.031
  -0.37500000  0.12500000  0.00000000       0.031
  -0.25000000  0.12500000  0.00000000       0.031
  -0.12500000  0.12500000  0.00000000       0.031
   0.00000000  0.25000000  0.00000000       0.031
   0.12500000  0.25000000  0.00000000       0.031
   0.25000000  0.25000000  0.00000000       0.031
   0.37500000  0.25000000  0.00000000       0.031
   0.50000000  0.25000000  0.00000000       0.031
  -0.37500000  0.25000000  0.00000000       0.031
  -0.25000000  0.25000000  0.00000000       0.031
  -0.12500000  0.25000000  0.00000000       0.031
   0.00000000  0.37500000  0.00000000       0.031
   0.12500000  0.37500000  0.00000000       0.031
   0.25000000  0.37500000  0.00000000       0.031
   0.37500000  0.37500000  0.00000000       0.031
   0.50000000  0.37500000  0.00000000       0.031
  -0.37500000  0.37500000  0.00000000       0.031
  -0.25000000  0.37500000  0.00000000       0.031
  -0.12500000  0.37500000  0.00000000       0.031
   0.00000000  0.50000000  0.00000000       0.016
   0.12500000  0.50000000  0.00000000       0.031
   0.25000000  0.50000000  0.00000000       0.031
   0.37500000  0.50000000  0.00000000       0.031
   0.50000000  0.50000000  0.00000000       0.016
 
 position of ions in fractional coordinates (direct lattice) 
   0.33336847  0.16670559  0.34068491
   0.33335513  0.66665358  0.34069624
   0.83332540  0.16666727  0.34068546
   0.83329081  0.66663686  0.34068167
   0.33333300  0.16666700  0.00000000
   0.33333300  0.66666700  0.00000000
   0.83333300  0.16666700  0.00000000
   0.83333300  0.66666700  0.00000000
   0.50000000  0.50000000  0.11375398
   0.50000000  0.00000000  0.11375398
   0.00000000  0.50000000  0.11375398
   0.00000000  0.00000000  0.11375398
   0.16672662  0.33334647  0.22777579
   0.16665985  0.83333880  0.22779558
   0.66662665  0.33336826  0.22779753
   0.66665045  0.83327002  0.22777588
   0.50002146  0.49998903  0.45291383
   0.49998890  0.00001982  0.45292266
   0.99997578  0.50001264  0.45290524
   0.00001137  0.99998344  0.45284330
 
 position of ions in cartesian coordinates  (Angst):
   1.27828380  0.73814369  6.25129342
   0.00014457  2.95182738  6.25150134
   3.83456905  0.73797401  6.25130358
   2.55626597  2.95175335  6.25123408
   1.27820111  0.73797281  0.00000000
  -0.00000289  2.95188681  0.00000000
   3.83460861  0.73797281  0.00000000
   2.55640461  2.95188681  0.00000000
   1.27820350  2.21391400  2.08729387
   2.55640750  0.00000000  2.08729387
  -1.27820400  2.21391400  2.08729387
   0.00000000  0.00000000  2.08729387
   0.00027277  1.47600082  4.17950207
  -1.27825298  3.68988087  4.17986530
   2.55611344  1.47609732  4.17990106
   1.27828226  3.68957633  4.17950379
   1.27834126  2.21386543  8.31060374
   2.55630009  0.00008776  8.31076576
   3.83445484  2.21396998  8.31044597
  -2.55630752  4.42775469  8.30930940
 


--------------------------------------------------------------------------------------------------------


 k-point  1 :   0.0000 0.0000 0.0000  plane waves:    4797
 k-point  2 :   0.1250 0.0000 0.0000  plane waves:    4789
 k-point  3 :   0.2500 0.0000 0.0000  plane waves:    4796
 k-point  4 :   0.3750-0.0000 0.0000  plane waves:    4804
 k-point  5 :   0.5000 0.0000 0.0000  plane waves:    4788
 k-point  6 :   0.0000 0.1250 0.0000  plane waves:    4789
 k-point  7 :   0.1250 0.1250 0.0000  plane waves:    4771
 k-point  8 :   0.2500 0.1250 0.0000  plane waves:    4771
 k-point  9 :   0.3750 0.1250 0.0000  plane waves:    4801
 k-point 10 :   0.5000 0.1250 0.0000  plane waves:    4801
 k-point 11 :  -0.3750 0.1250 0.0000  plane waves:    4771
 k-point 12 :  -0.2500 0.1250 0.0000  plane waves:    4771
 k-point 13 :  -0.1250 0.1250 0.0000  plane waves:    4789
 k-point 14 :   0.0000 0.2500 0.0000  plane waves:    4796
 k-point 15 :   0.1250 0.2500 0.0000  plane waves:    4771
 k-point 16 :   0.2500 0.2500 0.0000  plane waves:    4791
 k-point 17 :   0.3750 0.2500 0.0000  plane waves:    4811
 k-point 18 :   0.5000 0.2500 0.0000  plane waves:    4791
 k-point 19 :  -0.3750 0.2500 0.0000  plane waves:    4771
 k-point 20 :  -0.2500 0.2500 0.0000  plane waves:    4796
 k-point 21 :  -0.1250 0.2500 0.0000  plane waves:    4771
 k-point 22 :   0.0000 0.3750 0.0000  plane waves:    4804
 k-point 23 :   0.1250 0.3750 0.0000  plane waves:    4801
 k-point 24 :   0.2500 0.3750 0.0000  plane waves:    4811
 k-point 25 :   0.3750 0.3750 0.0000  plane waves:    4811
 k-point 26 :   0.5000 0.3750 0.0000  plane waves:    4801
 k-point 27 :  -0.3750 0.3750 0.0000  plane waves:    4804
 k-point 28 :  -0.2500 0.3750 0.0000  plane waves:    4771
 k-point 29 :  -0.1250 0.3750 0.0000  plane waves:    4771
 k-point 30 :   0.0000 0.5000 0.0000  plane waves:    4788
 k-point 31 :   0.1250 0.5000 0.0000  plane waves:    4801
 k-point 32 :   0.2500 0.5000 0.0000  plane waves:    4791
 k-point 33 :   0.3750 0.5000 0.0000  plane waves:    4801
 k-point 34 :   0.5000 0.5000 0.0000  plane waves:    4788

 maximum and minimum number of plane-waves per node :      4811     4771

 maximum number of plane-waves:      4811
 maximum index in each direction: 
   IXMAX=    7   IYMAX=    7   IZMAX=   25
   IXMIN=   -7   IYMIN=   -7   IZMIN=  -25


 serial   3D FFT for wavefunctions
 parallel 3D FFT for charge:
    minimum data exchange during FFTs selected (reduces bandwidth)


 total amount of memory used by VASP MPI-rank0   108110. kBytes
=======================================================================

   base      :      30000. kBytes
   nonl-proj :      48861. kBytes
   fftplans  :        681. kBytes
   grid      :       2720. kBytes
   one-center:        311. kBytes
   wavefun   :      25537. kBytes
 
     INWAV:  cpu time    0.0000: real time    0.0000
 Broyden mixing: mesh for mixing (old mesh)
   NGX = 15   NGY = 15   NGZ = 51
  (NGX  = 48   NGY  = 48   NGZ  =160)
  gives a total of  11475 points

 initial charge density was supplied:
 charge density of overlapping atoms calculated
 number of electron     212.0000000 magnetization 
 keeping initial charge density in first step


--------------------------------------------------------------------------------------------------------


 Maximum index for augmentation-charges          264 (set IRDMAX)


--------------------------------------------------------------------------------------------------------


 First call to EWALD:  gamma=   0.238
 Maximum number of real-space cells 4x 4x 1
 Maximum number of reciprocal cells 2x 2x 6

    FEWALD:  cpu time    0.0016: real time    0.0017


--------------------------------------- Iteration      1(   1)  ---------------------------------------


    POTLOK:  cpu time    0.0151: real time    0.0160
    SETDIJ:  cpu time    0.0058: real time    0.0064
     EDDAV:  cpu time   17.7017: real time   17.7305
       DOS:  cpu time    0.0026: real time    0.0037
    --------------------------------------------
      LOOP:  cpu time   17.7252: real time   17.7566

 eigenvalue-minimisations  : 21760
 total energy-change (2. order) : 0.1622233E+04  (-0.5145227E+04)
 number of electron     212.0000000 magnetization 
 augmentation part      212.0000000 magnetization 

 Free energy of the ion-electron system (eV)
  ---------------------------------------------------
  alpha Z        PSCENC =       638.96130334
  Ewald energy   TEWEN  =     32690.01244999
  -Hartree energ DENC   =    -58017.52834635
  -exchange      EXHF   =         0.00000000
  -V(xc)+E(xc)   XCENC  =       794.74715270
  PAW double counting   =     22535.35167656   -24440.94042401
  entropy T*S    EENTRO =        -0.01402966
  eigenvalues    EBANDS =      1913.32125062
  atomic energy  EATOM  =     25508.32158985
  Solvation  Ediel_sol  =         0.00000000
  ---------------------------------------------------
  free energy    TOTEN  =      1622.23262304 eV

  energy without entropy =     1622.24665270  energy(sigma->0) =     1622.23963787


--------------------------------------------------------------------------------------------------------




--------------------------------------- Iteration      1(   2)  ---------------------------------------


     EDDAV:  cpu time   15.8524: real time   15.8603
       DOS:  cpu time    0.0022: real time    0.0022
    --------------------------------------------
      LOOP:  cpu time   15.8546: real time   15.8624

 eigenvalue-minimisations  : 19584
 total energy-change (2. order) :-0.1437312E+04  (-0.1268400E+04)
 number of electron     212.0000000 magnetization 
 augmentation part      212.0000000 magnetization 

 Free energy of the ion-electron system (eV)
  ---------------------------------------------------
  alpha Z        PSCENC =       638.96130334
  Ewald energy   TEWEN  =     32690.01244999
  -Hartree energ DENC   =    -58017.52834635
  -exchange      EXHF   =         0.00000000
  -V(xc)+E(xc)   XCENC  =       794.74715270
  PAW double counting   =     22535.35167656   -24440.94042401
  entropy T*S    EENTRO =        -0.02037417
  eigenvalues    EBANDS =       476.01520332
  atomic energy  EATOM  =     25508.32158985
  Solvation  Ediel_sol  =         0.00000000
  ---------------------------------------------------
  free energy    TOTEN  =       184.92023123 eV

  energy without entropy =      184.94060540  energy(sigma->0) =      184.93041831


--------------------------------------------------------------------------------------------------------




--------------------------------------- Iteration      1(   3)  ---------------------------------------


     EDDAV:  cpu time   17.0922: real time   17.0993
       DOS:  cpu time    0.0023: real time    0.0023
    --------------------------------------------
      LOOP:  cpu time   17.0945: real time   17.1016

 eigenvalue-minimisations  : 21088
 total energy-change (2. order) :-0.2740586E+03  (-0.2455101E+03)
 number of electron     212.0000000 magnetization 
 augmentation part      212.0000000 magnetization 

 Free energy of the ion-electron system (eV)
  ---------------------------------------------------
  alpha Z        PSCENC =       638.96130334
  Ewald energy   TEWEN  =     32690.01244999
  -Hartree energ DENC   =    -58017.52834635
  -exchange      EXHF   =         0.00000000
  -V(xc)+E(xc)   XCENC  =       794.74715270
  PAW double counting   =     22535.35167656   -24440.94042401
  entropy T*S    EENTRO =        -0.03806445
  eigenvalues    EBANDS =       201.97427650
  atomic energy  EATOM  =     25508.32158985
  Solvation  Ediel_sol  =         0.00000000
  ---------------------------------------------------
  free energy    TOTEN  =       -89.13838587 eV

  energy without entropy =      -89.10032142  energy(sigma->0) =      -89.11935365


--------------------------------------------------------------------------------------------------------




--------------------------------------- Iteration      1(   4)  ---------------------------------------


     EDDAV:  cpu time   18.7537: real time   18.7605
       DOS:  cpu time    0.0022: real time    0.0022
    --------------------------------------------
      LOOP:  cpu time   18.7559: real time   18.7627

 eigenvalue-minimisations  : 22912
 total energy-change (2. order) :-0.1149986E+02  (-0.1141710E+02)
 number of electron     212.0000000 magnetization 
 augmentation part      212.0000000 magnetization 

 Free energy of the ion-electron system (eV)
  ---------------------------------------------------
  alpha Z        PSCENC =       638.96130334
  Ewald energy   TEWEN  =     32690.01244999
  -Hartree energ DENC   =    -58017.52834635
  -exchange      EXHF   =         0.00000000
  -V(xc)+E(xc)   XCENC  =       794.74715270
  PAW double counting   =     22535.35167656   -24440.94042401
  entropy T*S    EENTRO =        -0.03986128
  eigenvalues    EBANDS =       190.47621165
  atomic energy  EATOM  =     25508.32158985
  Solvation  Ediel_sol  =         0.00000000
  ---------------------------------------------------
  free energy    TOTEN  =      -100.63824755 eV

  energy without entropy =     -100.59838627  energy(sigma->0) =     -100.61831691


--------------------------------------------------------------------------------------------------------




--------------------------------------- Iteration      1(   5)  ---------------------------------------


     EDDAV:  cpu time   23.4786: real time   23.4864
       DOS:  cpu time    0.0022: real time    0.0022
    CHARGE:  cpu time    0.1779: real time    0.1780
    MIXING:  cpu time    0.0009: real time    0.0020
    --------------------------------------------
      LOOP:  cpu time   23.6597: real time   23.6687

 eigenvalue-minimisations  : 28640
 total energy-change (2. order) :-0.2101941E+00  (-0.2101320E+00)
 number of electron     212.0001763 magnetization 
 augmentation part      122.7001936 magnetization 

 Broyden mixing:
  rms(total) = 0.36565E+01    rms(broyden)= 0.36551E+01
  rms(prec ) = 0.41094E+01
  weight for this iteration     100.00

 Free energy of the ion-electron system (eV)
  ---------------------------------------------------
  alpha Z        PSCENC =       638.96130334
  Ewald energy   TEWEN  =     32690.01244999
  -Hartree energ DENC   =    -58017.52834635
  -exchange      EXHF   =         0.00000000
  -V(xc)+E(xc)   XCENC  =       794.74715270
  PAW double counting   =     22535.35167656   -24440.94042401
  entropy T*S    EENTRO =        -0.03988002
  eigenvalues    EBANDS =       190.26603626
  atomic energy  EATOM  =     25508.32158985
  Solvation  Ediel_sol  =         0.00000000
  ---------------------------------------------------
  free energy    TOTEN  =      -100.84844168 eV

  energy without entropy =     -100.80856166  energy(sigma->0) =     -100.82850167


--------------------------------------------------------------------------------------------------------




--------------------------------------- Iteration      1(   6)  ---------------------------------------


    POTLOK:  cpu time    0.0135: real time    0.0136
    SETDIJ:  cpu time    0.0044: real time    0.0044
     EDDAV:  cpu time   22.7214: real time   22.7294
       DOS:  cpu time    0.0022: real time    0.0022
    CHARGE:  cpu time    0.1751: real time    0.1751
    MIXING:  cpu time    0.0009: real time    0.0021
    --------------------------------------------
      LOOP:  cpu time   22.9174: real time   22.9268

 eigenvalue-minimisations  : 27424
 total energy-change (2. order) :-0.3217127E+02  (-0.3417647E+02)
 number of electron     212.0002088 magnetization 
 augmentation part      130.1630477 magnetization 

 Broyden mixing:
  rms(total) = 0.60054E+01    rms(broyden)= 0.60032E+01
  rms(prec ) = 0.88148E+01
  weight for this iteration     100.00

 eigenvalues of (default mixing * dielectric matrix)
  average eigenvalue GAMMA=   0.3298
  0.3298

 Free energy of the ion-electron system (eV)
  ---------------------------------------------------
  alpha Z        PSCENC =       638.96130334
  Ewald energy   TEWEN  =     32690.01244999
  -Hartree energ DENC   =    -57521.58836305
  -exchange      EXHF   =         0.00000000
  -V(xc)+E(xc)   XCENC  =       768.02459552
  PAW double counting   =     22901.55437691   -24694.29758729
  entropy T*S    EENTRO =        -0.02263569
  eigenvalues    EBANDS =      -423.98544255
  atomic energy  EATOM  =     25508.32158985
  Solvation  Ediel_sol  =         0.00000000
  ---------------------------------------------------
  free energy    TOTEN  =      -133.01971297 eV

  energy without entropy =     -132.99707728  energy(sigma->0) =     -133.00839513


--------------------------------------------------------------------------------------------------------




--------------------------------------- Iteration      1(   7)  ---------------------------------------


    POTLOK:  cpu time    0.0114: real time    0.0121
    SETDIJ:  cpu time    0.0039: real time    0.0039
     EDDAV:  cpu time   22.4991: real time   22.5060
       DOS:  cpu time    0.0022: real time    0.0023
    CHARGE:  cpu time    0.1763: real time    0.1763
    MIXING:  cpu time    0.0006: real time    0.0006
    --------------------------------------------
      LOOP:  cpu time   22.6935: real time   22.7013

 eigenvalue-minimisations  : 27072
 total energy-change (2. order) : 0.2064012E+02  (-0.3543448E+02)
 number of electron     212.0001970 magnetization 
 augmentation part      141.2915392 magnetization 

 Broyden mixing:
  rms(total) = 0.44569E+01    rms(broyden)= 0.44554E+01
  rms(prec ) = 0.58890E+01
  weight for this iteration     100.00

 eigenvalues of (default mixing * dielectric matrix)
  average eigenvalue GAMMA=   0.3965
  0.6402  0.1527

 Free energy of the ion-electron system (eV)
  ---------------------------------------------------
  alpha Z        PSCENC =       638.96130334
  Ewald energy   TEWEN  =     32690.01244999
  -Hartree energ DENC   =    -57504.53547098
  -exchange      EXHF   =         0.00000000
  -V(xc)+E(xc)   XCENC  =       769.36347492
  PAW double counting   =     23094.07246569   -24910.42894567
  entropy T*S    EENTRO =        -0.02554825
  eigenvalues    EBANDS =      -398.12091641
  atomic energy  EATOM  =     25508.32158985
  Solvation  Ediel_sol  =         0.00000000
  ---------------------------------------------------
  free energy    TOTEN  =      -112.37959753 eV

  energy without entropy =     -112.35404928  energy(sigma->0) =     -112.36682340


--------------------------------------------------------------------------------------------------------




--------------------------------------- Iteration      1(   8)  ---------------------------------------


    POTLOK:  cpu time    0.0116: real time    0.0127
    SETDIJ:  cpu time    0.0043: real time    0.0043
     EDDAV:  cpu time   23.9863: real time   23.9942
       DOS:  cpu time    0.0022: real time    0.0022
    CHARGE:  cpu time    0.1745: real time    0.1745
    MIXING:  cpu time    0.0006: real time    0.0006
    --------------------------------------------
      LOOP:  cpu time   24.1796: real time   24.1886

 eigenvalue-minimisations  : 28928
 total energy-change (2. order) : 0.2867697E+02  (-0.2054025E+01)
 number of electron     212.0001998 magnetization 
 augmentation part      135.8941446 magnetization 

 Broyden mixing:
  rms(total) = 0.12653E+01    rms(broyden)= 0.12643E+01
  rms(prec ) = 0.17007E+01
  weight for this iteration     100.00

 eigenvalues of (default mixing * dielectric matrix)
  average eigenvalue GAMMA=   0.5238
  0.1662  0.7026  0.7026

 Free energy of the ion-electron system (eV)
  ---------------------------------------------------
  alpha Z        PSCENC =       638.96130334
  Ewald energy   TEWEN  =     32690.01244999
  -Hartree energ DENC   =    -57644.23821599
  -exchange      EXHF   =         0.00000000
  -V(xc)+E(xc)   XCENC  =       774.86240524
  PAW double counting   =     23551.35651245   -25432.11314476
  entropy T*S    EENTRO =        -0.01636338
  eigenvalues    EBANDS =      -170.84916305
  atomic energy  EATOM  =     25508.32158985
  Solvation  Ediel_sol  =         0.00000000
  ---------------------------------------------------
  free energy    TOTEN  =       -83.70262631 eV

  energy without entropy =      -83.68626293  energy(sigma->0) =      -83.69444462


--------------------------------------------------------------------------------------------------------




--------------------------------------- Iteration      1(   9)  ---------------------------------------


    POTLOK:  cpu time    0.0114: real time    0.0114
    SETDIJ:  cpu time    0.0048: real time    0.0048
     EDDAV:  cpu time   24.1780: real time   24.1861
       DOS:  cpu time    0.0020: real time    0.0020
    CHARGE:  cpu time    0.1748: real time    0.1749
    MIXING:  cpu time    0.0006: real time    0.0006
    --------------------------------------------
      LOOP:  cpu time   24.3717: real time   24.3798

 eigenvalue-minimisations  : 29216
 total energy-change (2. order) : 0.9898792E+00  (-0.2040400E+01)
 number of electron     212.0001926 magnetization 
 augmentation part      132.2571484 magnetization 

 Broyden mixing:
  rms(total) = 0.88241E+00    rms(broyden)= 0.88113E+00
  rms(prec ) = 0.10588E+01
  weight for this iteration     100.00

 eigenvalues of (default mixing * dielectric matrix)
  average eigenvalue GAMMA=   0.5116
  0.7672  0.7672  0.1691  0.3427

 Free energy of the ion-electron system (eV)
  ---------------------------------------------------
  alpha Z        PSCENC =       638.96130334
  Ewald energy   TEWEN  =     32690.01244999
  -Hartree energ DENC   =    -57715.65717331
  -exchange      EXHF   =         0.00000000
  -V(xc)+E(xc)   XCENC  =       776.28844387
  PAW double counting   =     23812.91706666   -25717.81473477
  entropy T*S    EENTRO =        -0.02490798
  eigenvalues    EBANDS =       -75.71678471
  atomic energy  EATOM  =     25508.32158985
  Solvation  Ediel_sol  =         0.00000000
  ---------------------------------------------------
  free energy    TOTEN  =       -82.71274706 eV

  energy without entropy =      -82.68783908  energy(sigma->0) =      -82.70029307


--------------------------------------------------------------------------------------------------------




--------------------------------------- Iteration      1(  10)  ---------------------------------------


    POTLOK:  cpu time    0.0115: real time    0.0119
    SETDIJ:  cpu time    0.0039: real time    0.0039
     EDDAV:  cpu time   26.2119: real time   26.2203
       DOS:  cpu time    0.0022: real time    0.0022
    CHARGE:  cpu time    0.1747: real time    0.1748
    MIXING:  cpu time    0.0007: real time    0.0007
    --------------------------------------------
      LOOP:  cpu time   26.4050: real time   26.4138

 eigenvalue-minimisations  : 31392
 total energy-change (2. order) : 0.7499190E+00  (-0.5703989E+00)
 number of electron     212.0001966 magnetization 
 augmentation part      132.3197290 magnetization 

 Broyden mixing:
  rms(total) = 0.70624E+00    rms(broyden)= 0.70586E+00
  rms(prec ) = 0.94527E+00
  weight for this iteration     100.00

 eigenvalues of (default mixing * dielectric matrix)
  average eigenvalue GAMMA=   0.4385
  0.7716  0.7716  0.3635  0.1722  0.1137

 Free energy of the ion-electron system (eV)
  ---------------------------------------------------
  alpha Z        PSCENC =       638.96130334
  Ewald energy   TEWEN  =     32690.01244999
  -Hartree energ DENC   =    -57706.19268027
  -exchange      EXHF   =         0.00000000
  -V(xc)+E(xc)   XCENC  =       776.27231615
  PAW double counting   =     23930.95525354   -25843.43168302
  entropy T*S    EENTRO =        -0.03294530
  eigenvalues    EBANDS =       -76.82843230
  atomic energy  EATOM  =     25508.32158985
  Solvation  Ediel_sol  =         0.00000000
  ---------------------------------------------------
  free energy    TOTEN  =       -81.96282802 eV

  energy without entropy =      -81.92988272  energy(sigma->0) =      -81.94635537


--------------------------------------------------------------------------------------------------------




--------------------------------------- Iteration      1(  11)  ---------------------------------------


    POTLOK:  cpu time    0.0119: real time    0.0123
    SETDIJ:  cpu time    0.0043: real time    0.0043
     EDDAV:  cpu time   18.9479: real time   18.9537
       DOS:  cpu time    0.0021: real time    0.0021
    CHARGE:  cpu time    0.1749: real time    0.1749
    MIXING:  cpu time    0.0007: real time    0.0007
    --------------------------------------------
      LOOP:  cpu time   19.1417: real time   19.1480

 eigenvalue-minimisations  : 22752
 total energy-change (2. order) :-0.3731430E+00  (-0.7907719E+00)
 number of electron     212.0001964 magnetization 
 augmentation part      132.3668528 magnetization 

 Broyden mixing:
  rms(total) = 0.11809E+01    rms(broyden)= 0.11800E+01
  rms(prec ) = 0.14122E+01
  weight for this iteration     100.00

 eigenvalues of (default mixing * dielectric matrix)
  average eigenvalue GAMMA=   0.5242
  1.2816  0.6637  0.6637  0.1670  0.3089  0.0604

 Free energy of the ion-electron system (eV)
  ---------------------------------------------------
  alpha Z        PSCENC =       638.96130334
  Ewald energy   TEWEN  =     32690.01244999
  -Hartree energ DENC   =    -57705.52966805
  -exchange      EXHF   =         0.00000000
  -V(xc)+E(xc)   XCENC  =       776.17690734
  PAW double counting   =     23974.18380247   -25888.91857993
  entropy T*S    EENTRO =        -0.03147302
  eigenvalues    EBANDS =       -75.51230298
  atomic energy  EATOM  =     25508.32158985
  Solvation  Ediel_sol  =         0.00000000
  ---------------------------------------------------
  free energy    TOTEN  =       -82.33597101 eV

  energy without entropy =      -82.30449798  energy(sigma->0) =      -82.32023449


--------------------------------------------------------------------------------------------------------




--------------------------------------- Iteration      1(  12)  ---------------------------------------


    POTLOK:  cpu time    0.0116: real time    0.0124
    SETDIJ:  cpu time    0.0039: real time    0.0039
     EDDAV:  cpu time   26.9803: real time   26.9895
       DOS:  cpu time    0.0023: real time    0.0023
    CHARGE:  cpu time    0.1765: real time    0.1767
    MIXING:  cpu time    0.0007: real time    0.0007
    --------------------------------------------
      LOOP:  cpu time   27.1753: real time   27.1855

 eigenvalue-minimisations  : 31936
 total energy-change (2. order) : 0.3751011E+00  (-0.5956143E+00)
 number of electron     212.0001954 magnetization 
 augmentation part      133.0414556 magnetization 

 Broyden mixing:
  rms(total) = 0.45293E+00    rms(broyden)= 0.45180E+00
  rms(prec ) = 0.61823E+00
  weight for this iteration     100.00

 eigenvalues of (default mixing * dielectric matrix)
  average eigenvalue GAMMA=   0.4720
  1.3171  0.6717  0.6717  0.3095  0.1677  0.1043  0.0618

 Free energy of the ion-electron system (eV)
  ---------------------------------------------------
  alpha Z        PSCENC =       638.96130334
  Ewald energy   TEWEN  =     32690.01244999
  -Hartree energ DENC   =    -57703.11854799
  -exchange      EXHF   =         0.00000000
  -V(xc)+E(xc)   XCENC  =       775.81450011
  PAW double counting   =     24128.76258972   -26051.42211496
  entropy T*S    EENTRO =        -0.02307743
  eigenvalues    EBANDS =       -69.26956255
  atomic energy  EATOM  =     25508.32158985
  Solvation  Ediel_sol  =         0.00000000
  ---------------------------------------------------
  free energy    TOTEN  =       -81.96086992 eV

  energy without entropy =      -81.93779249  energy(sigma->0) =      -81.94933120


--------------------------------------------------------------------------------------------------------




--------------------------------------- Iteration      1(  13)  ---------------------------------------


    POTLOK:  cpu time    0.0118: real time    0.0123
    SETDIJ:  cpu time    0.0039: real time    0.0039
     EDDAV:  cpu time   21.3565: real time   21.3634
       DOS:  cpu time    0.0022: real time    0.0022
    CHARGE:  cpu time    0.1749: real time    0.1749
    MIXING:  cpu time    0.0008: real time    0.0008
    --------------------------------------------
      LOOP:  cpu time   21.5501: real time   21.5574

 eigenvalue-minimisations  : 25344
 total energy-change (2. order) : 0.2781220E-01  (-0.1109591E+00)
 number of electron     212.0001955 magnetization 
 augmentation part      133.0235836 magnetization 

 Broyden mixing:
  rms(total) = 0.44965E+00    rms(broyden)= 0.44873E+00
  rms(prec ) = 0.59393E+00
  weight for this iteration     100.00

 eigenvalues of (default mixing * dielectric matrix)
  average eigenvalue GAMMA=   0.4591
  1.3609  0.7055  0.7055  0.1661  0.3166  0.2933  0.0677  0.0574

 Free energy of the ion-electron system (eV)
  ---------------------------------------------------
  alpha Z        PSCENC =       638.96130334
  Ewald energy   TEWEN  =     32690.01244999
  -Hartree energ DENC   =    -57702.07988602
  -exchange      EXHF   =         0.00000000
  -V(xc)+E(xc)   XCENC  =       775.72316006
  PAW double counting   =     24144.35991219   -26067.62597600
  entropy T*S    EENTRO =        -0.01868681
  eigenvalues    EBANDS =       -69.58692431
  atomic energy  EATOM  =     25508.32158985
  Solvation  Ediel_sol  =         0.00000000
  ---------------------------------------------------
  free energy    TOTEN  =       -81.93305771 eV

  energy without entropy =      -81.91437090  energy(sigma->0) =      -81.92371431


--------------------------------------------------------------------------------------------------------




--------------------------------------- Iteration      1(  14)  ---------------------------------------


    POTLOK:  cpu time    0.0116: real time    0.0116
    SETDIJ:  cpu time    0.0039: real time    0.0039
     EDDAV:  cpu time   22.6018: real time   22.6096
       DOS:  cpu time    0.0021: real time    0.0021
    CHARGE:  cpu time    0.1755: real time    0.1755
    MIXING:  cpu time    0.0008: real time    0.0008
    --------------------------------------------
      LOOP:  cpu time   22.7957: real time   22.8035

 eigenvalue-minimisations  : 27200
 total energy-change (2. order) : 0.1093022E+00  (-0.4967054E-01)
 number of electron     212.0001960 magnetization 
 augmentation part      133.0483908 magnetization 

 Broyden mixing:
  rms(total) = 0.22595E+00    rms(broyden)= 0.22495E+00
  rms(prec ) = 0.32779E+00
  weight for this iteration     100.00

 eigenvalues of (default mixing * dielectric matrix)
  average eigenvalue GAMMA=   0.4856
  1.3839  0.7998  0.7998  0.3979  0.3979  0.3031  0.1666  0.0642  0.0569

 Free energy of the ion-electron system (eV)
  ---------------------------------------------------
  alpha Z        PSCENC =       638.96130334
  Ewald energy   TEWEN  =     32690.01244999
  -Hartree energ DENC   =    -57699.47493030
  -exchange      EXHF   =         0.00000000
  -V(xc)+E(xc)   XCENC  =       775.48127020
  PAW double counting   =     24178.07074901   -26102.59615996
  entropy T*S    EENTRO =        -0.02200650
  eigenvalues    EBANDS =       -70.57802116
  atomic energy  EATOM  =     25508.32158985
  Solvation  Ediel_sol  =         0.00000000
  ---------------------------------------------------
  free energy    TOTEN  =       -81.82375554 eV

  energy without entropy =      -81.80174904  energy(sigma->0) =      -81.81275229


--------------------------------------------------------------------------------------------------------




--------------------------------------- Iteration      1(  15)  ---------------------------------------


    POTLOK:  cpu time    0.0116: real time    0.0116
    SETDIJ:  cpu time    0.0039: real time    0.0039
     EDDAV:  cpu time   23.3958: real time   23.4035
       DOS:  cpu time    0.0022: real time    0.0022
    CHARGE:  cpu time    0.1744: real time    0.1746
    MIXING:  cpu time    0.0009: real time    0.0009
    --------------------------------------------
      LOOP:  cpu time   23.5887: real time   23.5965

 eigenvalue-minimisations  : 27584
 total energy-change (2. order) : 0.2506194E-01  (-0.3741278E-01)
 number of electron     212.0001962 magnetization 
 augmentation part      132.9481286 magnetization 

 Broyden mixing:
  rms(total) = 0.30210E+00    rms(broyden)= 0.30147E+00
  rms(prec ) = 0.35264E+00
  weight for this iteration     100.00

 eigenvalues of (default mixing * dielectric matrix)
  average eigenvalue GAMMA=   0.4620
  1.4044  0.8516  0.8516  0.4290  0.4290  0.3031  0.1665  0.0664  0.0623  0.0560

 Free energy of the ion-electron system (eV)
  ---------------------------------------------------
  alpha Z        PSCENC =       638.96130334
  Ewald energy   TEWEN  =     32690.01244999
  -Hartree energ DENC   =    -57698.10280853
  -exchange      EXHF   =         0.00000000
  -V(xc)+E(xc)   XCENC  =       775.21929169
  PAW double counting   =     24216.11966806   -26142.23698165
  entropy T*S    EENTRO =        -0.02129664
  eigenvalues    EBANDS =       -70.07190970
  atomic energy  EATOM  =     25508.32158985
  Solvation  Ediel_sol  =         0.00000000
  ---------------------------------------------------
  free energy    TOTEN  =       -81.79869359 eV

  energy without entropy =      -81.77739695  energy(sigma->0) =      -81.78804527


--------------------------------------------------------------------------------------------------------




--------------------------------------- Iteration      1(  16)  ---------------------------------------


    POTLOK:  cpu time    0.0118: real time    0.0118
    SETDIJ:  cpu time    0.0039: real time    0.0039
     EDDAV:  cpu time   21.9234: real time   21.9309
       DOS:  cpu time    0.0020: real time    0.0020
    CHARGE:  cpu time    0.1755: real time    0.1755
    MIXING:  cpu time    0.0009: real time    0.0009
    --------------------------------------------
      LOOP:  cpu time   22.1176: real time   22.1251

 eigenvalue-minimisations  : 25920
 total energy-change (2. order) : 0.2711164E-01  (-0.3157774E-01)
 number of electron     212.0001962 magnetization 
 augmentation part      132.9264299 magnetization 

 Broyden mixing:
  rms(total) = 0.11716E+00    rms(broyden)= 0.11516E+00
  rms(prec ) = 0.13108E+00
  weight for this iteration     100.00

 eigenvalues of (default mixing * dielectric matrix)
  average eigenvalue GAMMA=   0.5515
  1.9837  1.0728  0.7217  0.7217  0.5766  0.3508  0.3005  0.1665  0.0644  0.0573
  0.0504

 Free energy of the ion-electron system (eV)
  ---------------------------------------------------
  alpha Z        PSCENC =       638.96130334
  Ewald energy   TEWEN  =     32690.01244999
  -Hartree energ DENC   =    -57697.64416265
  -exchange      EXHF   =         0.00000000
  -V(xc)+E(xc)   XCENC  =       775.12400874
  PAW double counting   =     24231.32660535   -26158.13158253
  entropy T*S    EENTRO =        -0.02472889
  eigenvalues    EBANDS =       -69.71706515
  atomic energy  EATOM  =     25508.32158985
  Solvation  Ediel_sol  =         0.00000000
  ---------------------------------------------------
  free energy    TOTEN  =       -81.77158195 eV

  energy without entropy =      -81.74685306  energy(sigma->0) =      -81.75921750


--------------------------------------------------------------------------------------------------------




--------------------------------------- Iteration      1(  17)  ---------------------------------------


    POTLOK:  cpu time    0.0116: real time    0.0116
    SETDIJ:  cpu time    0.0039: real time    0.0039
     EDDAV:  cpu time   22.8287: real time   22.8360
       DOS:  cpu time    0.0021: real time    0.0021
    CHARGE:  cpu time    0.1736: real time    0.1736
    MIXING:  cpu time    0.0010: real time    0.0010
    --------------------------------------------
      LOOP:  cpu time   23.0210: real time   23.0283

 eigenvalue-minimisations  : 27008
 total energy-change (2. order) : 0.3396277E-02  (-0.8648351E-02)
 number of electron     212.0001962 magnetization 
 augmentation part      133.0445923 magnetization 

 Broyden mixing:
  rms(total) = 0.78948E-01    rms(broyden)= 0.78324E-01
  rms(prec ) = 0.10325E+00
  weight for this iteration     100.00

 eigenvalues of (default mixing * dielectric matrix)
  average eigenvalue GAMMA=   0.5954
  2.3203  1.3363  0.7028  0.7028  0.5848  0.4923  0.3755  0.2912  0.1665  0.0644
  0.0573  0.0502

 Free energy of the ion-electron system (eV)
  ---------------------------------------------------
  alpha Z        PSCENC =       638.96130334
  Ewald energy   TEWEN  =     32690.01244999
  -Hartree energ DENC   =    -57697.27547707
  -exchange      EXHF   =         0.00000000
  -V(xc)+E(xc)   XCENC  =       774.94552064
  PAW double counting   =     24281.94263227   -26211.80495649
  entropy T*S    EENTRO =        -0.02393302
  eigenvalues    EBANDS =       -66.84731518
  atomic energy  EATOM  =     25508.32158985
  Solvation  Ediel_sol  =         0.00000000
  ---------------------------------------------------
  free energy    TOTEN  =       -81.76818567 eV

  energy without entropy =      -81.74425265  energy(sigma->0) =      -81.75621916


--------------------------------------------------------------------------------------------------------




--------------------------------------- Iteration      1(  18)  ---------------------------------------


    POTLOK:  cpu time    0.0117: real time    0.0117
    SETDIJ:  cpu time    0.0040: real time    0.0040
     EDDAV:  cpu time   24.3138: real time   24.3216
       DOS:  cpu time    0.0022: real time    0.0022
    CHARGE:  cpu time    0.1743: real time    0.1743
    MIXING:  cpu time    0.0011: real time    0.0011
    --------------------------------------------
      LOOP:  cpu time   24.5071: real time   24.5149

 eigenvalue-minimisations  : 28544
 total energy-change (2. order) : 0.5034370E-02  (-0.2483338E-02)
 number of electron     212.0001963 magnetization 
 augmentation part      132.9758897 magnetization 

 Broyden mixing:
  rms(total) = 0.28618E-01    rms(broyden)= 0.28258E-01
  rms(prec ) = 0.35911E-01
  weight for this iteration     100.00

 eigenvalues of (default mixing * dielectric matrix)
  average eigenvalue GAMMA=   0.6188
  2.3699  1.4460  0.8005  0.8005  0.7686  0.4346  0.4346  0.3628  0.2891  0.1665
  0.0644  0.0573  0.0502

 Free energy of the ion-electron system (eV)
  ---------------------------------------------------
  alpha Z        PSCENC =       638.96130334
  Ewald energy   TEWEN  =     32690.01244999
  -Hartree energ DENC   =    -57700.16278762
  -exchange      EXHF   =         0.00000000
  -V(xc)+E(xc)   XCENC  =       774.87775162
  PAW double counting   =     24299.46006214   -26230.46557111
  entropy T*S    EENTRO =        -0.02552910
  eigenvalues    EBANDS =       -62.74242040
  atomic energy  EATOM  =     25508.32158985
  Solvation  Ediel_sol  =         0.00000000
  ---------------------------------------------------
  free energy    TOTEN  =       -81.76315130 eV

  energy without entropy =      -81.73762220  energy(sigma->0) =      -81.75038675


--------------------------------------------------------------------------------------------------------




--------------------------------------- Iteration      1(  19)  ---------------------------------------


    POTLOK:  cpu time    0.0119: real time    0.0119
    SETDIJ:  cpu time    0.0039: real time    0.0039
     EDDAV:  cpu time   21.2804: real time   21.2875
       DOS:  cpu time    0.0022: real time    0.0022
    CHARGE:  cpu time    0.1781: real time    0.1781
    MIXING:  cpu time    0.0012: real time    0.0012
    --------------------------------------------
      LOOP:  cpu time   21.4777: real time   21.4848

 eigenvalue-minimisations  : 25472
 total energy-change (2. order) : 0.9745149E-03  (-0.3039681E-03)
 number of electron     212.0001962 magnetization 
 augmentation part      132.9629891 magnetization 

 Broyden mixing:
  rms(total) = 0.20941E-01    rms(broyden)= 0.20887E-01
  rms(prec ) = 0.25245E-01
  weight for this iteration     100.00

 eigenvalues of (default mixing * dielectric matrix)
  average eigenvalue GAMMA=   0.6464
  2.3992  1.6816  0.8456  0.8456  0.6944  0.6944  0.5663  0.1665  0.3604  0.2905
  0.3329  0.0644  0.0573  0.0502

 Free energy of the ion-electron system (eV)
  ---------------------------------------------------
  alpha Z        PSCENC =       638.96130334
  Ewald energy   TEWEN  =     32690.01244999
  -Hartree energ DENC   =    -57701.80425423
  -exchange      EXHF   =         0.00000000
  -V(xc)+E(xc)   XCENC  =       774.88799292
  PAW double counting   =     24301.24191075   -26232.51202605
  entropy T*S    EENTRO =        -0.02522115
  eigenvalues    EBANDS =       -60.84592219
  atomic energy  EATOM  =     25508.32158985
  Solvation  Ediel_sol  =         0.00000000
  ---------------------------------------------------
  free energy    TOTEN  =       -81.76217679 eV

  energy without entropy =      -81.73695564  energy(sigma->0) =      -81.74956621


--------------------------------------------------------------------------------------------------------




--------------------------------------- Iteration      1(  20)  ---------------------------------------


    POTLOK:  cpu time    0.0118: real time    0.0118
    SETDIJ:  cpu time    0.0039: real time    0.0039
     EDDAV:  cpu time   19.6415: real time   19.6480
       DOS:  cpu time    0.0022: real time    0.0022
    CHARGE:  cpu time    0.1749: real time    0.1749
    MIXING:  cpu time    0.0012: real time    0.0012
    --------------------------------------------
      LOOP:  cpu time   19.8355: real time   19.8421

 eigenvalue-minimisations  : 23520
 total energy-change (2. order) : 0.2024410E-03  (-0.2961838E-03)
 number of electron     212.0001962 magnetization 
 augmentation part      132.9664478 magnetization 

 Broyden mixing:
  rms(total) = 0.20077E-01    rms(broyden)= 0.20035E-01
  rms(prec ) = 0.29873E-01
  weight for this iteration     100.00

 eigenvalues of (default mixing * dielectric matrix)
  average eigenvalue GAMMA=   0.6730
  2.3863  1.9988  0.8840  0.8840  0.7228  0.7228  0.6987  0.4600  0.1665  0.3723
  0.2910  0.3363  0.0644  0.0573  0.0502

 Free energy of the ion-electron system (eV)
  ---------------------------------------------------
  alpha Z        PSCENC =       638.96130334
  Ewald energy   TEWEN  =     32690.01244999
  -Hartree energ DENC   =    -57705.05139820
  -exchange      EXHF   =         0.00000000
  -V(xc)+E(xc)   XCENC  =       774.92334816
  PAW double counting   =     24300.34013330   -26231.75665027
  entropy T*S    EENTRO =        -0.02413003
  eigenvalues    EBANDS =       -57.48862048
  atomic energy  EATOM  =     25508.32158985
  Solvation  Ediel_sol  =         0.00000000
  ---------------------------------------------------
  free energy    TOTEN  =       -81.76197435 eV

  energy without entropy =      -81.73784432  energy(sigma->0) =      -81.74990933


--------------------------------------------------------------------------------------------------------




--------------------------------------- Iteration      1(  21)  ---------------------------------------


    POTLOK:  cpu time    0.0119: real time    0.0128
    SETDIJ:  cpu time    0.0043: real time    0.0043
     EDDAV:  cpu time   18.1751: real time   18.1813
       DOS:  cpu time    0.0021: real time    0.0021
    CHARGE:  cpu time    0.1749: real time    0.1750
    MIXING:  cpu time    0.0012: real time    0.0012
    --------------------------------------------
      LOOP:  cpu time   18.3696: real time   18.3767

 eigenvalue-minimisations  : 21824
 total energy-change (2. order) : 0.1489659E-03  (-0.1064142E-03)
 number of electron     212.0001962 magnetization 
 augmentation part      132.9418516 magnetization 

 Broyden mixing:
  rms(total) = 0.88923E-02    rms(broyden)= 0.88596E-02
  rms(prec ) = 0.12552E-01
  weight for this iteration     100.00

 eigenvalues of (default mixing * dielectric matrix)
  average eigenvalue GAMMA=   0.7164
  2.4815  2.4815  0.9604  0.9604  0.8002  0.8002  0.7190  0.4974  0.1665  0.4234
  0.2910  0.3659  0.3426  0.0644  0.0573  0.0502

 Free energy of the ion-electron system (eV)
  ---------------------------------------------------
  alpha Z        PSCENC =       638.96130334
  Ewald energy   TEWEN  =     32690.01244999
  -Hartree energ DENC   =    -57707.58724833
  -exchange      EXHF   =         0.00000000
  -V(xc)+E(xc)   XCENC  =       774.94083104
  PAW double counting   =     24299.28625782   -26230.72931239
  entropy T*S    EENTRO =        -0.02428938
  eigenvalues    EBANDS =       -54.94340731
  atomic energy  EATOM  =     25508.32158985
  Solvation  Ediel_sol  =         0.00000000
  ---------------------------------------------------
  free energy    TOTEN  =       -81.76182538 eV

  energy without entropy =      -81.73753600  energy(sigma->0) =      -81.74968069


--------------------------------------------------------------------------------------------------------




--------------------------------------- Iteration      1(  22)  ---------------------------------------


    POTLOK:  cpu time    0.0115: real time    0.0115
    SETDIJ:  cpu time    0.0039: real time    0.0039
     EDDAV:  cpu time   16.0784: real time   16.0835
       DOS:  cpu time    0.0021: real time    0.0021
    CHARGE:  cpu time    0.1746: real time    0.1748
    MIXING:  cpu time    0.0014: real time    0.0014
    --------------------------------------------
      LOOP:  cpu time   16.2719: real time   16.2772

 eigenvalue-minimisations  : 18688
 total energy-change (2. order) :-0.3227184E-03  (-0.6285748E-04)
 number of electron     212.0001962 magnetization 
 augmentation part      132.9231688 magnetization 

 Broyden mixing:
  rms(total) = 0.91201E-02    rms(broyden)= 0.91136E-02
  rms(prec ) = 0.12212E-01
  weight for this iteration     100.00

 eigenvalues of (default mixing * dielectric matrix)
  average eigenvalue GAMMA=   0.7625
  3.0039  2.5474  1.3595  0.8623  0.8623  0.7229  0.7229  0.6779  0.4846  0.1665
  0.2911  0.3730  0.3730  0.3432  0.0644  0.0573  0.0502

 Free energy of the ion-electron system (eV)
  ---------------------------------------------------
  alpha Z        PSCENC =       638.96130334
  Ewald energy   TEWEN  =     32690.01244999
  -Hartree energ DENC   =    -57710.17577307
  -exchange      EXHF   =         0.00000000
  -V(xc)+E(xc)   XCENC  =       774.95590459
  PAW double counting   =     24296.91124295   -26228.26299828
  entropy T*S    EENTRO =        -0.02458800
  eigenvalues    EBANDS =       -52.46127948
  atomic energy  EATOM  =     25508.32158985
  Solvation  Ediel_sol  =         0.00000000
  ---------------------------------------------------
  free energy    TOTEN  =       -81.76214810 eV

  energy without entropy =      -81.73756010  energy(sigma->0) =      -81.74985410


--------------------------------------------------------------------------------------------------------




--------------------------------------- Iteration      1(  23)  ---------------------------------------


    POTLOK:  cpu time    0.0116: real time    0.0116
    SETDIJ:  cpu time    0.0039: real time    0.0039
     EDDAV:  cpu time   17.5777: real time   17.5832
       DOS:  cpu time    0.0022: real time    0.0022
    CHARGE:  cpu time    0.1729: real time    0.1729
    MIXING:  cpu time    0.0015: real time    0.0015
    --------------------------------------------
      LOOP:  cpu time   17.7698: real time   17.7753

 eigenvalue-minimisations  : 20576
 total energy-change (2. order) :-0.3244457E-03  (-0.1030965E-04)
 number of electron     212.0001962 magnetization 
 augmentation part      132.9257119 magnetization 

 Broyden mixing:
[...]
     87       0.7466      2.00000
     88       0.7469      2.00000
     89       0.9543      2.00000
     90       0.9544      2.00000
     91       1.2417      2.00000
     92       1.2421      2.00000
     93       1.3034      2.00000
     94       1.3037      2.00000
     95       1.4821      2.00000
     96       1.4821      2.00000
     97       1.5851      2.00000
     98       1.5852      2.00000
     99       1.8351      2.00000
    100       1.8351      2.00000
    101       1.9851      2.00000
    102       1.9854      2.00000
    103       2.1001      2.00000
    104       2.1004      2.00000
    105       2.3927      1.12246
    106       2.3928      1.11963
    107       2.4745      0.03092
    108       2.4745      0.03087
    109       2.5097      0.00160
    110       2.5103      0.00152
    111       3.6044      0.00000
    112       3.6045      0.00000
    113       3.8902      0.00000
    114       3.8902      0.00000
    115       4.0212      0.00000
    116       4.0216      0.00000
    117       5.4323      0.00000
    118       5.4324      0.00000
    119       5.6700      0.00000
    120       5.6704      0.00000
    121       7.3869      0.00000
    122       7.3877      0.00000
    123       8.1200      0.00000
    124       8.1201      0.00000
    125       9.0322      0.00000
    126       9.0330      0.00000
    127       9.3941      0.00000
    128       9.3949      0.00000
    129       9.6202      0.00000
    130       9.6208      0.00000
    131       9.7645      0.00000
    132       9.7648      0.00000
    133       9.8792      0.00000
    134       9.8798      0.00000
    135      10.5141      0.00000
    136      10.5150      0.00000
    137      10.6689      0.00000
    138      10.6691      0.00000
    139      11.3606      0.00000
    140      11.3615      0.00000
    141      11.7222      0.00000
    142      11.7235      0.00000
    143      12.1651      0.00000
    144      12.1654      0.00000
    145      12.9356      0.00000
    146      12.9363      0.00000
    147      13.2264      0.00000
    148      13.2266      0.00000
    149      13.2505      0.00000
    150      13.2513      0.00000
    151      13.4514      0.00000
    152      13.4518      0.00000
    153      13.6512      0.00000
    154      13.6512      0.00000
    155      13.6938      0.00000
    156      13.6944      0.00000
    157      13.8491      0.00000
    158      13.8496      0.00000
    159      14.5705      0.00000
    160      14.5710      0.00000
    161      15.4139      0.00000
    162      15.4143      0.00000
    163      15.4735      0.00000
    164      15.4746      0.00000
    165      15.7479      0.00000
    166      15.7486      0.00000
    167      16.8219      0.00000
    168      16.8223      0.00000
    169      16.9007      0.00000
    170      16.9008      0.00000
    171      17.1957      0.00000
    172      17.1962      0.00000
    173      17.2629      0.00000
    174      17.2632      0.00000
    175      17.5986      0.00000
    176      17.5987      0.00000
    177      17.7173      0.00000
    178      17.7175      0.00000
    179      18.0360      0.00000
    180      18.0369      0.00000
    181      18.8303      0.00000
    182      18.8312      0.00000
    183      19.2378      0.00000
    184      19.2379      0.00000
    185      19.2488      0.00000
    186      19.2497      0.00000
    187      19.2728      0.00000
    188      19.2729      0.00000
    189      20.1719      0.00000
    190      20.1728      0.00000
    191      20.7040      0.00000
    192      20.7044      0.00000
    193      20.7563      0.00000
    194      20.7563      0.00000
    195      20.9331      0.00000
    196      20.9333      0.00000
    197      21.0090      0.00000
    198      21.0091      0.00000
    199      21.1629      0.00000
    200      21.1629      0.00000
    201      21.4092      0.00000
    202      21.4100      0.00000
    203      22.0846      0.00000
    204      22.0848      0.00000
    205      22.1795      0.00000
    206      22.1795      0.00000
    207      22.2831      0.00000
    208      22.2833      0.00000
    209      22.6950      0.00000
    210      22.6953      0.00000
    211      22.9447      0.00000
    212      22.9448      0.00000
    213      23.2151      0.00000
    214      23.2158      0.00000
    215      23.5250      0.00000
    216      23.5257      0.00000
    217      23.6314      0.00000
    218      23.6320      0.00000
    219      24.2426      0.00000
    220      24.2426      0.00000
    221      24.2499      0.00000
    222      24.2502      0.00000
    223      24.5787      0.00000
    224      24.5788      0.00000
    225      24.7365      0.00000
    226      24.7368      0.00000
    227      24.7533      0.00000
    228      24.7537      0.00000
    229      24.8566      0.00000
    230      24.8571      0.00000
    231      25.1625      0.00000
    232      25.1628      0.00000
    233      25.9442      0.00000
    234      25.9448      0.00000
    235      26.0549      0.00000
    236      26.0551      0.00000
    237      26.5611      0.00000
    238      26.5615      0.00000
    239      26.9501      0.00000
    240      26.9513      0.00000
    241      27.0489      0.00000
    242      27.0498      0.00000
    243      27.0665      0.00000
    244      27.0677      0.00000
    245      28.2758      0.00000
    246      28.2770      0.00000
    247      28.7081      0.00000
    248      28.7085      0.00000
    249      28.8243      0.00000
    250      28.8245      0.00000
    251      28.8556      0.00000
    252      28.8556      0.00000
    253      28.9256      0.00000
    254      28.9257      0.00000
    255      29.1875      0.00000
    256      29.1879      0.00000
    257      29.2555      0.00000
    258      29.2560      0.00000
    259      29.4193      0.00000
    260      29.4194      0.00000
    261      30.3505      0.00000
    262      30.3507      0.00000
    263      30.7469      0.00000
    264      30.7478      0.00000
    265      30.8800      0.00000
    266      30.8803      0.00000
    267      31.5294      0.00000
    268      31.5303      0.00000
    269      31.9813      0.00000
    270      31.9816      0.00000
    271      32.1246      0.00000
    272      32.1259      0.00000
    273      32.2245      0.00000
    274      32.2245      0.00000
    275      32.3351      0.00000
    276      32.3354      0.00000
    277      32.5050      0.00000
    278      32.5054      0.00000
    279      32.5890      0.00000
    280      32.5891      0.00000
    281      32.6770      0.00000
    282      32.6770      0.00000
    283      32.9850      0.00000
    284      32.9855      0.00000
    285      33.0650      0.00000
    286      33.0656      0.00000
    287      33.1518      0.00000
    288      33.1581      0.00000


--------------------------------------------------------------------------------------------------------


 soft charge-density along one line, spin component           1
         0         1         2         3         4         5         6         7         8         9
 total charge-density along one line
 
 pseudopotential strength for first ion, spin component:           1
 -5.023   0.000   0.000   0.006  -0.000  -5.502   0.000   0.000
  0.000  -4.907   0.000  -0.000   0.006   0.000  -5.391   0.000
  0.000   0.000  -4.884   0.000   0.000   0.000   0.000  -5.369
  0.006  -0.000   0.000  -4.907   0.000   0.006  -0.000   0.000
 -0.000   0.006   0.000   0.000  -5.023  -0.000   0.006   0.000
 -5.502   0.000   0.000   0.006  -0.000  -5.927   0.000   0.000
  0.000  -5.391   0.000  -0.000   0.006   0.000  -5.820   0.000
  0.000   0.000  -5.369   0.000   0.000   0.000   0.000  -5.799
  0.006  -0.000   0.000  -5.391   0.000   0.006  -0.000   0.000
 -0.000   0.006   0.000   0.000  -5.502  -0.000   0.006   0.000
  0.000  -0.000  -0.017  -0.000   0.000   0.000  -0.000  -0.016
  0.000  -0.000  -0.030  -0.000   0.000   0.000  -0.000  -0.029
  0.000  -0.001  -0.000   0.000   0.000   0.000  -0.001  -0.000
  0.000   0.000  -0.001  -0.000   0.000   0.000   0.000  -0.001
  0.000   0.000  -0.000  -0.001   0.000   0.000   0.000  -0.000
  0.000  -0.002  -0.000   0.000   0.000   0.000  -0.001  -0.000
  0.000   0.000  -0.002  -0.000   0.000   0.000   0.000  -0.002
  0.000   0.000  -0.000  -0.002   0.000   0.000   0.000  -0.000
 total augmentation occupancy for first ion, spin component:           1
  1.913  -0.000  -0.000   0.120  -0.000  -0.682   0.000   0.000  -0.019   0.000  -0.000  -0.000   0.000  -0.000   0.003  -0.000
 -0.000   2.787   0.000   0.000   0.120   0.000  -1.243  -0.000  -0.000  -0.021   0.000  -0.000  -0.009  -0.000  -0.000   0.002
 -0.000   0.000   2.088   0.000   0.000   0.000  -0.000  -0.805  -0.000   0.000  -0.010   0.020   0.000  -0.012  -0.000  -0.000
  0.120   0.000   0.000   2.787  -0.000  -0.020  -0.000  -0.000  -1.243   0.000   0.001  -0.000  -0.000   0.000  -0.009   0.000
 -0.000   0.120   0.000  -0.000   1.912   0.000  -0.019   0.000   0.000  -0.682  -0.000   0.000   0.003  -0.000   0.000  -0.000
 -0.682   0.000   0.000  -0.020   0.000   0.963  -0.000  -0.000  -0.069   0.000   0.000  -0.000  -0.000   0.000  -0.000   0.000
  0.000  -1.243  -0.000  -0.000  -0.019  -0.000   1.293  -0.000   0.000  -0.069  -0.000   0.000   0.003   0.000   0.000  -0.000
  0.000  -0.000  -0.805  -0.000   0.000  -0.000  -0.000   1.108  -0.000  -0.000  -0.010  -0.020  -0.000   0.007  -0.000   0.000
 -0.019  -0.000  -0.000  -1.243   0.000  -0.069   0.000  -0.000   1.293  -0.000  -0.001   0.000   0.000  -0.000   0.003  -0.000
  0.000  -0.021   0.000   0.000  -0.682   0.000  -0.069  -0.000  -0.000   0.963  -0.000   0.000  -0.001   0.000  -0.000   0.000
 -0.000   0.000  -0.010   0.001  -0.000   0.000  -0.000  -0.010  -0.001  -0.000   2.079  -0.249   0.000  -0.004  -0.000  -0.000
 -0.000  -0.000   0.020  -0.000   0.000  -0.000   0.000  -0.020   0.000   0.000  -0.249   0.036  -0.000  -0.000   0.000   0.000
  0.000  -0.009   0.000  -0.000   0.003  -0.000   0.003  -0.000   0.000  -0.001   0.000  -0.000   0.259  -0.000   0.000  -0.024
 -0.000  -0.000  -0.012   0.000  -0.000   0.000   0.000   0.007  -0.000   0.000  -0.004  -0.000  -0.000   0.237  -0.000   0.000
  0.003  -0.000  -0.000  -0.009   0.000  -0.000   0.000  -0.000   0.003  -0.000  -0.000   0.000   0.000  -0.000   0.259  -0.000
 -0.000   0.002  -0.000   0.000  -0.000   0.000  -0.000   0.000  -0.000   0.000  -0.000   0.000  -0.024   0.000  -0.000   0.003
  0.000   0.000   0.001  -0.000   0.000  -0.000  -0.000  -0.000   0.000  -0.000   0.000   0.000   0.000  -0.026   0.000  -0.000
 -0.000   0.000   0.000   0.002  -0.000   0.000  -0.000  -0.000  -0.000   0.000   0.000  -0.000  -0.000   0.000  -0.024   0.000


------------------------ aborting loop because EDIFF is reached ----------------------------------------


    CHARGE:  cpu time    0.1723: real time    0.1726
    FORLOC:  cpu time    0.0023: real time    0.0023
    FORNL :  cpu time    7.0159: real time    7.0176
    STRESS:  cpu time    9.8437: real time    9.8469
    FORCOR:  cpu time    0.0125: real time    0.0125
    FORHAR:  cpu time    0.0045: real time    0.0045
    MIXING:  cpu time    0.0019: real time    0.0019
    OFIELD:  cpu time    0.0001: real time    0.0001

  FORCE on cell =-STRESS in cart. coord.  units (eV):
  Direction    XX          YY          ZZ          XY          YZ          ZX
  --------------------------------------------------------------------------------------
  Alpha Z   638.96130   638.96130   638.96130
  Ewald   46375.50152 46375.50074-60061.03001    -0.00002    -0.00064     0.00067
  Hartree 53669.33277 53669.33552-49626.07695     0.00229     0.00004    -0.00015
  E(xc)   -1209.34778 -1209.35061 -1211.67608    -0.00242    -0.00002     0.00003
  Local  ************************106738.74236    -0.03486     0.00018     0.00031
  n-local  -380.57047  -380.57097  -388.37436    -0.00038     0.00000    -0.00010
  augment  2132.78631  2132.81071  2150.25360     0.02075     0.00015    -0.00037
  Kinetic  1733.15372  1733.15557  1752.01265     0.00110     0.00008    -0.00015
  Fock        0.00000     0.00000     0.00000     0.00000     0.00000     0.00000
  -------------------------------------------------------------------------------------
  Total     -14.41630   -14.43195    -7.18749    -0.01354    -0.00020     0.00023
  in kB     -55.60277   -55.66315   -27.72171    -0.05223    -0.00078     0.00090
  external pressure =      -46.33 kB  Pullay stress =        0.00 kB


 VOLUME and BASIS-vectors are now :
 -----------------------------------------------------------------------------
  energy-cutoff  :      295.45
  volume of cell :      415.40
      direct lattice vectors                 reciprocal lattice vectors
     5.112815000  0.000000000  0.000000000     0.195586971  0.112922204  0.000000000
    -2.556408000  4.427828000  0.000000000     0.000000000  0.225844364  0.000000000
     0.000000000  0.000000000 18.349193841     0.000000000  0.000000000  0.054498307

  length of vectors
     5.112815000  5.112815532 18.349193841     0.225844388  0.225844364  0.054498307


 FORCES acting on ions
    electron-ion (+dipol)            ewald-force                    non-local-force                 convergence-correction
 -----------------------------------------------------------------------------------------------
   -.303E-01 0.982E-01 -.137E+04   0.307E-01 -.988E-01 0.137E+04   0.416E-03 0.520E-04 0.233E+00   0.185E-04 0.522E-03 0.293E-01
   0.949E-01 -.602E-01 -.137E+04   -.951E-01 0.608E-01 0.137E+04   0.944E-04 0.184E-03 0.233E+00   0.144E-05 -.486E-03 0.297E-01
   0.344E-01 -.136E-01 -.137E+04   -.348E-01 0.133E-01 0.137E+04   -.493E-03 0.450E-04 0.232E+00   -.101E-04 0.489E-03 0.291E-01
   -.972E-01 -.247E-01 -.137E+04   0.974E-01 0.249E-01 0.137E+04   -.373E-04 -.292E-03 0.233E+00   -.116E-05 -.502E-03 0.296E-01
   -.286E-02 0.310E-02 0.322E+04   0.272E-02 -.319E-02 -.322E+04   0.497E-04 0.797E-04 -.185E+01   0.557E-04 0.385E-04 0.845E-02
   0.402E-02 -.231E-02 0.322E+04   -.403E-02 0.230E-02 -.322E+04   0.849E-04 -.623E-05 -.185E+01   -.386E-04 -.958E-05 0.881E-02
   0.276E-02 -.160E-02 0.322E+04   -.261E-02 0.154E-02 -.322E+04   -.748E-04 -.458E-04 -.185E+01   -.412E-04 0.875E-04 0.815E-02
   -.412E-02 0.927E-03 0.322E+04   0.415E-02 -.765E-03 -.322E+04   -.118E-03 -.479E-04 -.185E+01   0.528E-04 -.754E-04 0.856E-02
   -.287E-01 0.168E-01 0.149E+04   0.285E-01 -.165E-01 -.149E+04   0.472E-03 -.319E-03 -.117E+01   -.104E-03 -.136E-03 0.111E+00
   -.212E-02 -.355E-01 0.149E+04   0.209E-02 0.350E-01 -.149E+04   -.401E-03 0.431E-03 -.117E+01   0.260E-03 0.180E-03 0.111E+00
   0.300E-01 0.197E-01 0.149E+04   -.299E-01 -.194E-01 -.149E+04   -.538E-03 0.122E-03 -.117E+01   0.124E-03 -.418E-03 0.111E+00
   0.732E-03 -.342E-03 0.149E+04   -.758E-03 0.813E-04 -.149E+04   0.359E-03 -.175E-03 -.117E+01   -.217E-03 0.312E-03 0.111E+00
   0.365E+00 0.829E-01 -.254E+03   -.360E+00 -.797E-01 0.255E+03   -.378E-02 -.791E-03 -.186E+01   -.519E-02 -.329E-02 0.163E+00
   -.106E+00 0.613E-01 -.254E+03   0.107E+00 -.614E-01 0.256E+03   0.830E-03 -.842E-03 -.187E+01   -.749E-05 0.323E-03 0.158E+00
   -.371E+00 0.213E+00 -.254E+03   0.365E+00 -.210E+00 0.256E+03   0.405E-02 -.195E-02 -.187E+01   0.517E-02 -.331E-02 0.164E+00
   0.112E+00 -.359E+00 -.254E+03   -.112E+00 0.353E+00 0.255E+03   -.930E-03 0.358E-02 -.186E+01   -.131E-04 0.627E-02 0.163E+00
   0.164E+00 -.670E-01 -.309E+04   -.163E+00 0.666E-01 0.308E+04   -.213E-02 0.135E-02 0.342E+01   -.124E-03 -.495E-03 -.772E-01
   -.115E+00 0.962E-01 -.309E+04   0.109E+00 -.991E-01 0.308E+04   0.218E-02 -.140E-02 0.341E+01   0.509E-02 0.342E-02 -.823E-01
   -.164E+00 0.632E-01 -.309E+04   0.164E+00 -.561E-01 0.308E+04   0.216E-02 -.115E-02 0.341E+01   0.146E-03 -.638E-02 -.818E-01
   0.114E+00 -.916E-01 -.309E+04   -.108E+00 0.879E-01 0.308E+04   -.214E-02 0.101E-02 0.341E+01   -.510E-02 0.356E-02 -.829E-01
 -----------------------------------------------------------------------------------------------
   -.249E-03 -.819E-04 0.393E+01   0.682E-13 -.897E-13 -.500E-11   0.531E-04 -.170E-03 -.495E+01   0.742E-04 0.101E-03 0.919E+00
 
 
 POSITION                                       TOTAL-FORCE (eV/Angst)
 -----------------------------------------------------------------------------------
      1.27828      0.73814      6.25129         0.000767      0.000039      0.024765
      0.00014      2.95183      6.25150        -0.000076      0.000342      0.024384
      3.83457      0.73797      6.25130        -0.000917      0.000225      0.023469
      2.55627      2.95175      6.25123         0.000163     -0.000570      0.024781
      1.27820      0.73797      0.00000        -0.000034      0.000032     -0.036908
     -0.00000      2.95189      0.00000         0.000048     -0.000016     -0.037160
      3.83461      0.73797      0.00000         0.000044     -0.000015     -0.037027
      2.55640      2.95189      0.00000        -0.000023      0.000047     -0.036996
      1.27820      2.21391      2.08729         0.000195     -0.000131      0.023029
      2.55641      0.00000      2.08729        -0.000162      0.000167      0.024634
     -1.27820      2.21391      2.08729        -0.000268      0.000021      0.024621
      0.00000      0.00000      2.08729         0.000122     -0.000117      0.023807
      0.00027      1.47600      4.17950        -0.003674     -0.000817      0.164438
     -1.27825      3.68988      4.17987         0.001054     -0.000536      0.162691
      2.55611      1.47610      4.17990         0.003873     -0.002272      0.160914
      1.27828      3.68958      4.17950        -0.001208      0.003674      0.164132
      1.27834      2.21387      8.31060        -0.001481      0.000523     -0.174961
      2.55630      0.00009      8.31077         0.000963     -0.000888     -0.176137
      3.83445      2.21397      8.31045         0.001528     -0.000505     -0.175498
     -2.55631      4.42775      8.30931        -0.000915      0.000799     -0.170977
 -----------------------------------------------------------------------------------
    total drift:                               -0.000121     -0.000152     -0.101386


--------------------------------------------------------------------------------------------------------



  FREE ENERGIE OF THE ION-ELECTRON SYSTEM (eV)
  ---------------------------------------------------
  free  energy   TOTEN  =       -81.76339401 eV

  energy  without entropy=      -81.73886605  energy(sigma->0) =      -81.75113003
 


--------------------------------------------------------------------------------------------------------


    POTLOK:  cpu time    0.0161: real time    0.0161


--------------------------------------------------------------------------------------------------------


 writing wavefunctions
     LOOP+:  cpu time  581.7470: real time  581.9764
    4ORBIT:  cpu time    0.0000: real time    0.0000

 total amount of memory used by VASP MPI-rank0   108110. kBytes
=======================================================================

   base      :      30000. kBytes
   nonl-proj :      48861. kBytes
   fftplans  :        681. kBytes
   grid      :       2720. kBytes
   one-center:        311. kBytes
   wavefun   :      25537. kBytes
 
  
  
 General timing and accounting informations for this job:
 ========================================================
  
                  Total CPU time used (sec):      588.457
                            User time (sec):      585.249
                          System time (sec):        3.208
                         Elapsed time (sec):      588.782
  
                   Maximum memory used (kb):      135640.
                   Average memory used (kb):           0.
  
                          Minor page faults:       338124
                          Major page faults:           97
                 Voluntary context switches:          445
