<?xml version="1.0" encoding="ISO-8859-1"?>
<modeling>
 <generator>
  <i name="program" type="string">vasp </i>
  <i name="version" type="string">5.4.4.18Apr17-6-g9f103f2a35  </i>
  <i name="subversion" type="string">(build Sep 24 2019 01:11:21) complex            parallel </i>
  <i name="platform" type="string">LinuxIFC </i>
  <i name="date" type="string">2020 08 14 </i>
  <i name="time" type="string">21:39:35 </i>
 </generator>
 <incar>
  <i type="string" name="PREC">normal</i>
  <i type="int" name="NBANDS">   280</i>
  <i type="int" name="ISMEAR">     0</i>
  <i name="SIGMA">      0.05000000</i>
  <v type="int" name="KPOINT_BSE">    -1     0     0     0</v>
 </incar>
 <structure name="primitive_cell" >
  <crystal>
   <varray name="basis" >
    <v>       5.11281500       0.00000000       0.00000000 </v>
    <v>      -2.55640800       4.42782800       0.00000000 </v>
    <v>       0.00000000       0.00000000      18.34919384 </v>
   </varray>
   <i name="volume">    415.40126002 </i>
   <varray name="rec_basis" >
    <v>       0.19558697       0.11292220       0.00000000 </v>
    <v>       0.00000000       0.22584436       0.00000000 </v>
    <v>       0.00000000       0.00000000       0.05449831 </v>
   </varray>
  </crystal>
  <varray name="positions" >
   <v>       0.33336847       0.16670559       0.34068491 </v>
   <v>       0.00001137      -0.00001656       0.45284330 </v>
   <v>      -0.49997854       0.49998903       0.45291383 </v>
   <v>       0.49998890       0.00001982       0.45292266 </v>
   <v>      -0.33337335       0.33336826       0.22779753 </v>
   <v>       0.16665985      -0.16666120       0.22779558 </v>
   <v>       0.16672662       0.33334647       0.22777579 </v>
   <v>      -0.16670919      -0.33336314       0.34068167 </v>
   <v>       0.33335513      -0.33334642       0.34069624 </v>
   <v>      -0.16667460       0.16666727       0.34068546 </v>
   <v>      -0.00002422      -0.49998736       0.45290524 </v>
   <v>      -0.33334955      -0.16672998       0.22777588 </v>
   <v>      -0.50000000      -0.50000000       0.11375398 </v>
   <v>      -0.50000000       0.00000000       0.11375398 </v>
   <v>       0.00000000       0.00000000       0.11375398 </v>
   <v>       0.00000000      -0.50000000       0.11375398 </v>
   <v>       0.33333300       0.16666700       0.00000000 </v>
   <v>      -0.16666700      -0.33333300       0.00000000 </v>
   <v>       0.33333300      -0.33333300       0.00000000 </v>
   <v>      -0.16666700       0.16666700       0.00000000 </v>
  </varray>
 </structure>
 <varray name="primitive_index" >
  <v type="int" >        1 </v>
  <v type="int" >       20 </v>
  <v type="int" >       17 </v>
  <v type="int" >       18 </v>
  <v type="int" >       15 </v>
  <v type="int" >       14 </v>
  <v type="int" >       13 </v>
  <v type="int" >        4 </v>
  <v type="int" >        2 </v>
  <v type="int" >        3 </v>
  <v type="int" >       19 </v>
  <v type="int" >       16 </v>
  <v type="int" >        9 </v>
  <v type="int" >       10 </v>
  <v type="int" >       12 </v>
  <v type="int" >       11 </v>
  <v type="int" >        5 </v>
  <v type="int" >        8 </v>
  <v type="int" >        6 </v>
  <v type="int" >        7 </v>
 </varray>
 <kpoints>
  <generation param="Gamma">
   <v type="int" name="divisions">       8        8        1 </v>
   <v name="usershift">      0.00000000       0.00000000       0.00000000 </v>
   <v name="genvec1">      0.12500000       0.00000000       0.00000000 </v>
   <v name="genvec2">      0.00000000       0.12500000       0.00000000 </v>
   <v name="genvec3">      0.00000000       0.00000000       1.00000000 </v>
   <v name="shift">      0.00000000       0.00000000       0.00000000 </v>
  </generation>
  <varray name="kpointlist" >
   <v>       0.00000000       0.00000000       0.00000000 </v>
   <v>       0.12500000       0.00000000       0.00000000 </v>
   <v>       0.25000000       0.00000000       0.00000000 </v>
   <v>       0.37500000      -0.00000000       0.00000000 </v>
   <v>       0.50000000       0.00000000       0.00000000 </v>
   <v>       0.00000000       0.12500000       0.00000000 </v>
   <v>       0.12500000       0.12500000       0.00000000 </v>
   <v>       0.25000000       0.12500000       0.00000000 </v>
   <v>       0.37500000       0.12500000       0.00000000 </v>
   <v>       0.50000000       0.12500000       0.00000000 </v>
   <v>      -0.37500000       0.12500000       0.00000000 </v>
   <v>      -0.25000000       0.12500000       0.00000000 </v>
   <v>      -0.12500000       0.12500000       0.00000000 </v>
   <v>       0.00000000       0.25000000       0.00000000 </v>
   <v>       0.12500000       0.25000000       0.00000000 </v>
   <v>       0.25000000       0.25000000       0.00000000 </v>
   <v>       0.37500000       0.25000000       0.00000000 </v>
   <v>       0.50000000       0.25000000       0.00000000 </v>
   <v>      -0.37500000       0.25000000       0.00000000 </v>
   <v>      -0.25000000       0.25000000       0.00000000 </v>
   <v>      -0.12500000       0.25000000       0.00000000 </v>
   <v>       0.00000000       0.37500000       0.00000000 </v>
   <v>       0.12500000       0.37500000       0.00000000 </v>
   <v>       0.25000000       0.37500000       0.00000000 </v>
   <v>       0.37500000       0.37500000       0.00000000 </v>
   <v>       0.50000000       0.37500000       0.00000000 </v>
   <v>      -0.37500000       0.37500000       0.00000000 </v>
   <v>      -0.25000000       0.37500000       0.00000000 </v>
   <v>      -0.12500000       0.37500000       0.00000000 </v>
   <v>       0.00000000       0.50000000       0.00000000 </v>
   <v>       0.12500000       0.50000000       0.00000000 </v>
   <v>       0.25000000       0.50000000       0.00000000 </v>
   <v>       0.37500000       0.50000000       0.00000000 </v>
   <v>       0.50000000       0.50000000       0.00000000 </v>
  </varray>
  <varray name="weights" >
   <v>       0.01562500 </v>
   <v>       0.03125000 </v>
   <v>       0.03125000 </v>
   <v>       0.03125000 </v>
   <v>       0.01562500 </v>
   <v>       0.03125000 </v>
   <v>       0.03125000 </v>
   <v>       0.03125000 </v>
   <v>       0.03125000 </v>
   <v>       0.03125000 </v>
   <v>       0.03125000 </v>
   <v>       0.03125000 </v>
   <v>       0.03125000 </v>
   <v>       0.03125000 </v>
   <v>       0.03125000 </v>
   <v>       0.03125000 </v>
   <v>       0.03125000 </v>
   <v>       0.03125000 </v>
   <v>       0.03125000 </v>
   <v>       0.03125000 </v>
   <v>       0.03125000 </v>
   <v>       0.03125000 </v>
   <v>       0.03125000 </v>
   <v>       0.03125000 </v>
   <v>       0.03125000 </v>
   <v>       0.03125000 </v>
   <v>       0.03125000 </v>
   <v>       0.03125000 </v>
   <v>       0.03125000 </v>
   <v>       0.01562500 </v>
   <v>       0.03125000 </v>
   <v>       0.03125000 </v>
   <v>       0.03125000 </v>
   <v>       0.01562500 </v>
  </varray>
 </kpoints>
 <parameters>
  <separator name="general" >
   <i type="string" name="SYSTEM">unknown system</i>
   <i type="logical" name="LCOMPAT"> F  </i>
  </separator>
  <separator name="electronic" >
   <i type="string" name="PREC">normal</i>
   <i name="ENMAX">    295.44600000</i>
   <i name="ENAUG">    586.98000000</i>
   <i name="EDIFF">      0.00010000</i>
   <i type="int" name="IALGO">    38</i>
   <i type="int" name="IWAVPR">    10</i>
   <i type="int" name="NBANDS">   288</i>
   <i name="NELECT">    212.00000000</i>
   <i type="int" name="TURBO">     0</i>
   <i type="int" name="IRESTART">     0</i>
   <i type="int" name="NREBOOT">     0</i>
   <i type="int" name="NMIN">     0</i>
   <i name="EREF">      0.00000000</i>
   <separator name="electronic smearing" >
    <i type="int" name="ISMEAR">     0</i>
    <i name="SIGMA">      0.05000000</i>
    <i name="KSPACING">      0.50000000</i>
    <i type="logical" name="KGAMMA"> T  </i>
   </separator>
   <separator name="electronic projectors" >
    <i type="logical" name="LREAL"> F  </i>
    <v name="ROPT">      0.00000000      0.00000000</v>
    <i type="int" name="LMAXPAW">  -100</i>
    <i type="int" name="LMAXMIX">     2</i>
    <i type="logical" name="NLSPLINE"> F  </i>
   </separator>
   <separator name="electronic startup" >
    <i type="int" name="ISTART">     0</i>
    <i type="int" name="ICHARG">     2</i>
    <i type="int" name="INIWAV">     1</i>
   </separator>
   <separator name="electronic spin" >
    <i type="int" name="ISPIN">     1</i>
    <i type="logical" name="LNONCOLLINEAR"> F  </i>
    <v name="MAGMOM">      1.00000000      1.00000000      1.00000000      1.00000000      1.00000000      1.00000000      1.00000000      1.00000000      1.00000000      1.00000000      1.00000000      1.00000000      1.00000000      1.00000000      1.00000000      1.00000000      1.00000000      1.00000000      1.00000000      1.00000000
</v>
    <i name="NUPDOWN">     -1.00000000</i>
    <i type="logical" name="LSORBIT"> F  </i>
    <v name="SAXIS">      0.00000000      0.00000000      1.00000000</v>
    <i type="logical" name="LSPIRAL"> F  </i>
    <v name="QSPIRAL">      0.00000000      0.00000000      0.00000000</v>
    <i type="logical" name="LZEROZ"> F  </i>
   </separator>
   <separator name="electronic exchange-correlation" >
    <i type="logical" name="LASPH"> F  </i>
    <i type="logical" name="LMETAGGA"> F  </i>
   </separator>
   <separator name="electronic convergence" >
    <i type="int" name="NELM">    60</i>
    <i type="int" name="NELMDL">    -5</i>
    <i type="int" name="NELMIN">     2</i>
    <i name="ENINI">    295.44600000</i>
    <separator name="electronic convergence detail" >
     <i type="logical" name="LDIAG"> T  </i>
     <i type="logical" name="LSUBROT"> F  </i>
     <i name="WEIMIN">      0.00000000</i>
     <i name="EBREAK">      0.00000009</i>
     <i name="DEPER">      0.30000000</i>
     <i type="int" name="NRMM">     4</i>
     <i name="TIME">      0.40000000</i>
    </separator>
   </separator>
   <separator name="electronic mixer" >
    <i name="AMIX">      0.40000000</i>
    <i name="BMIX">      1.00000000</i>
    <i name="AMIN">      0.10000000</i>
    <i name="AMIX_MAG">      1.60000000</i>
    <i name="BMIX_MAG">      1.00000000</i>
    <separator name="electronic mixer details" >
     <i type="int" name="IMIX">     4</i>
     <i type="logical" name="MIXFIRST"> F  </i>
     <i type="int" name="MAXMIX">   -45</i>
     <i name="WC">    100.00000000</i>
     <i type="int" name="INIMIX">     1</i>
     <i type="int" name="MIXPRE">     1</i>
     <i type="int" name="MREMOVE">     5</i>
    </separator>
   </separator>
   <separator name="electronic dipolcorrection" >
    <i type="logical" name="LDIPOL"> F  </i>
    <i type="logical" name="LMONO"> F  </i>
    <i type="int" name="IDIPOL">     0</i>
    <i name="EPSILON">      1.00000000</i>
    <v name="DIPOL">   -100.00000000   -100.00000000   -100.00000000</v>
    <i name="EFIELD">      0.00000000</i>
   </separator>
  </separator>
  <separator name="grids" >
   <i type="int" name="NGX">    24</i>
   <i type="int" name="NGY">    24</i>
   <i type="int" name="NGZ">    80</i>
   <i type="int" name="NGXF">    48</i>
   <i type="int" name="NGYF">    48</i>
   <i type="int" name="NGZF">   160</i>
   <i type="logical" name="ADDGRID"> F  </i>
  </separator>
  <separator name="ionic" >
   <i type="int" name="NSW">     0</i>
   <i type="int" name="IBRION">    -1</i>
   <i type="int" name="MDALGO">     0</i>
   <i type="int" name="ISIF">     2</i>
   <i name="PSTRESS">      0.00000000</i>
   <i name="EDIFFG">      0.00100000</i>
   <i type="int" name="NFREE">     0</i>
   <i name="POTIM">      0.50000000</i>
   <i name="SMASS">     -3.00000000</i>
   <i name="SCALEE">      1.00000000</i>
  </separator>
  <separator name="ionic md" >
   <i name="TEBEG">      0.00010000</i>
   <i name="TEEND">      0.00010000</i>
   <i type="int" name="NBLOCK">     1</i>
   <i type="int" name="KBLOCK">     1</i>
   <i type="int" name="NPACO">   256</i>
   <i name="APACO">     16.00000000</i>
  </separator>
  <separator name="symmetry" >
   <i type="int" name="ISYM">     2</i>
   <i name="SYMPREC">      0.00001000</i>
  </separator>
  <separator name="dos" >
   <i type="int" name="LORBIT">     0</i>
   <v name="RWIGS">     -1.00000000     -1.00000000</v>
   <i type="int" name="NEDOS">   301</i>
   <i name="EMIN">     10.00000000</i>
   <i name="EMAX">    -10.00000000</i>
   <i name="EFERMI">      0.00000000</i>
  </separator>
  <separator name="writing" >
   <i type="int" name="NWRITE">     2</i>
   <i type="logical" name="LWAVE"> T  </i>
   <i type="logical" name="LDOWNSAMPLE"> F  </i>
   <i type="logical" name="LCHARG"> T  </i>
   <i type="logical" name="LPARD"> F  </i>
   <i type="logical" name="LVTOT"> F  </i>
   <i type="logical" name="LVHAR"> F  </i>
   <i type="logical" name="LELF"> F  </i>
   <i type="logical" name="LOPTICS"> F  </i>
   <v name="STM">      0.00000000      0.00000000      0.00000000      0.00000000      0.00000000      0.00000000      0.00000000</v>
  </separator>
  <separator name="performance" >
   <i type="int" name="NPAR">    32</i>
   <i type="int" name="NSIM">     4</i>
   <i type="int" name="NBLK">    -1</i>
   <i type="logical" name="LPLANE"> T  </i>
   <i type="logical" name="LSCALAPACK"> T  </i>
   <i type="logical" name="LSCAAWARE"> T  </i>
   <i type="logical" name="LSCALU"> F  </i>
   <i type="logical" name="LASYNC"> F  </i>
   <i type="logical" name="LORBITALREAL"> F  </i>
  </separator>
  <separator name="miscellaneous" >
   <i type="int" name="IDIOT">     3</i>
   <i type="int" name="ISPECIAL">     0</i>
   <i type="logical" name="LMUSIC"> F  </i>
   <v name="POMASS">     58.93300000     63.54600000</v>
   <v name="DARWINR">      0.00000000      0.00000000</v>
   <v name="DARWINV">      1.00000000      1.00000000</v>
   <i type="logical" name="LCORR"> T  </i>
  </separator>
  <i type="logical" name="GGA_COMPAT"> T  </i>
  <i type="logical" name="LBERRY"> F  </i>
  <i type="int" name="ICORELEVEL">     0</i>
  <i type="logical" name="LDAU"> F  </i>
  <i type="int" name="I_CONSTRAINED_M">     0</i>
  <separator name="electronic exchange-correlation" >
   <i type="string" name="GGA">--</i>
   <i type="int" name="VOSKOWN">     0</i>
   <i type="logical" name="LHFCALC"> F  </i>
   <i type="string" name="PRECFOCK"></i>
   <i type="logical" name="LSYMGRAD"> F  </i>
   <i type="logical" name="LHFONE"> F  </i>
   <i type="logical" name="LRHFCALC"> F  </i>
   <i type="logical" name="LTHOMAS"> F  </i>
   <i type="logical" name="LMODELHF"> F  </i>
   <i name="ENCUT4O">     -1.00000000</i>
   <i type="int" name="EXXOEP">     0</i>
   <i type="int" name="FOURORBIT">     0</i>
   <i name="AEXX">      0.00000000</i>
   <i name="HFALPHA">      0.00000000</i>
   <i name="MCALPHA">      0.00000000</i>
   <i name="ALDAX">      1.00000000</i>
   <i name="AGGAX">      1.00000000</i>
   <i name="ALDAC">      1.00000000</i>
   <i name="AGGAC">      1.00000000</i>
   <i type="int" name="NKREDX">     1</i>
   <i type="int" name="NKREDY">     1</i>
   <i type="int" name="NKREDZ">     1</i>
   <i type="logical" name="SHIFTRED"> F  </i>
   <i type="logical" name="ODDONLY"> F  </i>
   <i type="logical" name="EVENONLY"> F  </i>
   <i type="int" name="LMAXFOCK">     0</i>
   <i type="int" name="NMAXFOCKAE">     0</i>
   <i type="logical" name="LFOCKAEDFT"> F  </i>
   <i name="HFSCREEN">      0.00000000</i>
   <i name="HFSCREENC">      0.00000000</i>
   <i type="int" name="NBANDSGWLOW">     0</i>
  </separator>
  <separator name="vdW DFT" >
   <i type="logical" name="LUSE_VDW"> F  </i>
   <i name="Zab_VDW">     -0.84910000</i>
   <i name="PARAM1">      0.12340000</i>
   <i name="PARAM2">      1.00000000</i>
   <i name="PARAM3">      0.00000000</i>
  </separator>
  <separator name="model GW" >
   <i type="int" name="MODEL_GW">     0</i>
   <i name="MODEL_EPS0">     12.46203780</i>
   <i name="MODEL_ALPHA">      1.00000000</i>
  </separator>
  <separator name="linear response parameters" >
   <i type="logical" name="LEPSILON"> F  </i>
   <i type="logical" name="LRPA"> F  </i>
   <i type="logical" name="LNABLA"> F  </i>
   <i type="logical" name="LVEL"> F  </i>
   <i type="int" name="KINTER">     0</i>
   <i name="CSHIFT">      0.10000000</i>
   <i name="OMEGAMAX">     -1.00000000</i>
   <i name="DEG_THRESHOLD">      0.00200000</i>
   <i name="RTIME">     -0.10000000</i>
   <i name="WPLASMAI">      0.00000000</i>
   <v name="DFIELD">      0.00000000      0.00000000      0.00000000</v>
   <v name="WPLASMA">      0.00000000      0.00000000      0.00000000      0.00000000      0.00000000      0.00000000      0.00000000      0.00000000      0.00000000</v>
  </separator>
  <separator name="orbital magnetization" >
   <i type="logical" name="NUCIND"> F  </i>
   <v name="MAGPOS">      0.00000000      0.00000000      0.00000000</v>
   <i type="logical" name="LNICSALL"> T  </i>
   <i type="logical" name="ORBITALMAG"> F  </i>
   <i type="logical" name="LMAGBLOCH"> F  </i>
   <i type="logical" name="LCHIMAG"> F  </i>
   <i type="logical" name="LGAUGE"> T  </i>
   <i type="int" name="MAGATOM">     0</i>
   <v name="MAGDIPOL">      0.00000000      0.00000000      0.00000000</v>
   <v name="AVECCONST">      0.00000000      0.00000000      0.00000000</v>
  </separator>
  <separator name="response functions" >
   <i type="logical" name="LADDER"> F  </i>
   <i type="logical" name="LRPAFORCE"> F  </i>
   <i type="logical" name="LFXC"> F  </i>
   <i type="logical" name="LHARTREE"> T  </i>
   <i type="int" name="IBSE">     0</i>
   <v type="int" name="KPOINT">    -1     0     0     0</v>
   <i type="logical" name="LTCTE"> F  </i>
   <i type="logical" name="LTETE"> F  </i>
   <i type="logical" name="LTRIPLET"> F  </i>
   <i type="logical" name="LFXCEPS"> F  </i>
   <i type="logical" name="LFXHEG"> F  </i>
   <i type="int" name="NATURALO">     2</i>
   <i type="logical" name="L2ORDER"> F  </i>
   <i type="logical" name="LMP2LT"> F  </i>
   <i type="logical" name="LUSEW"> F  </i>
   <i name="ENCUTGW">     -2.00000000</i>
   <i name="ENCUTGWSOFT">     -2.00000000</i>
   <i name="ENCUTLF">     -1.00000000</i>
   <i type="int" name="LMAXMP2">    -1</i>
   <i name="SCISSOR">      0.00000000</i>
   <i type="int" name="NOMEGA">     0</i>
   <i type="int" name="NOMEGAR">     0</i>
   <i type="int" name="NBANDSGW">    -1</i>
   <i type="int" name="NBANDSO">    -1</i>
   <i type="int" name="NBANDSV">    -1</i>
   <i type="int" name="NELM">     1</i>
   <i type="int" name="NELMHF">     1</i>
   <i type="int" name="DIM">     3</i>
   <i type="int" name="ANTIRES">     0</i>
   <i name="OMEGAMAX">    -30.00000000</i>
   <i name="OMEGAMIN">    -30.00000000</i>
   <i name="OMEGATL">   -200.00000000</i>
   <i type="int" name="OMEGAGRID">   140</i>
   <i name="CSHIFT">     -0.10000000</i>
   <i type="logical" name="SELFENERGY"> F  </i>
   <i type="logical" name="LSPECTRAL"> F  </i>
   <i type="logical" name="LSPECTRALGW"> F  </i>
   <i type="logical" name="LSINGLES"> F  </i>
   <i type="logical" name="LFERMIGW"> F  </i>
   <i type="logical" name="ODDONLYGW"> F  </i>
   <i type="logical" name="EVENONLYGW"> F  </i>
   <i type="int" name="NKREDLFX">     1</i>
   <i type="int" name="NKREDLFY">     1</i>
   <i type="int" name="NKREDLFZ">     1</i>
   <i type="int" name="MAXMEM">  2800</i>
   <i type="int" name="TELESCOPE">     0</i>
   <i type="int" name="TAUPAR">     1</i>
   <i type="int" name="OMEGAPAR">    -1</i>
   <i name="LAMBDA">      1.00000000</i>
  </separator>
  <separator name="External order field" >
   <i name="OFIELD_KAPPA">      0.00000000</i>
   <v name="OFIELD_K">      0.00000000      0.00000000      0.00000000</v>
   <i name="OFIELD_Q6_NEAR">      0.00000000</i>
   <i name="OFIELD_Q6_FAR">      0.00000000</i>
   <i name="OFIELD_A">      0.00000000</i>
  </separator>
 </parameters>
 <atominfo>
  <atoms>      20 </atoms>
  <types>       2 </types>
  <array name="atoms" >
   <dimension dim="1">ion</dimension>
   <field type="string">element</field>
   <field type="int">atomtype</field>
   <set>
    <rc><c>Co</c><c>   1</c></rc>
    <rc><c>Co</c><c>   1</c></rc>
    <rc><c>Co</c><c>   1</c></rc>
    <rc><c>Co</c><c>   1</c></rc>
    <rc><c>Cu</c><c>   2</c></rc>
    <rc><c>Cu</c><c>   2</c></rc>
    <rc><c>Cu</c><c>   2</c></rc>
    <rc><c>Cu</c><c>   2</c></rc>
    <rc><c>Cu</c><c>   2</c></rc>
    <rc><c>Cu</c><c>   2</c></rc>
    <rc><c>Cu</c><c>   2</c></rc>
    <rc><c>Cu</c><c>   2</c></rc>
    <rc><c>Cu</c><c>   2</c></rc>
    <rc><c>Cu</c><c>   2</c></rc>
    <rc><c>Cu</c><c>   2</c></rc>
    <rc><c>Cu</c><c>   2</c></rc>
    <rc><c>Cu</c><c>   2</c></rc>
    <rc><c>Cu</c><c>   2</c></rc>
    <rc><c>Cu</c><c>   2</c></rc>
    <rc><c>Cu</c><c>   2</c></rc>
   </set>
  </array>
  <array name="atomtypes" >
   <dimension dim="1">type</dimension>
   <field type="int">atomspertype</field>
   <field type="string">element</field>
   <field>mass</field>
   <field>valence</field>
   <field type="string">pseudopotential</field>
   <set>
    <rc><c>   4</c><c>Co</c><c>     58.93300000</c><c>      9.00000000</c><c>  PAW_PBE Co 02Aug2007                  </c></rc>
    <rc><c>  16</c><c>Cu</c><c>     63.54600000</c><c>     11.00000000</c><c>  PAW_PBE Cu 22Jun2005                  </c></rc>
   </set>
  </array>
 </atominfo>
 <structure name="initialpos" >
  <crystal>
   <varray name="basis" >
    <v>       5.11281500       0.00000000       0.00000000 </v>
    <v>      -2.55640800       4.42782800       0.00000000 </v>
    <v>       0.00000000       0.00000000      18.34919384 </v>
   </varray>
   <i name="volume">    415.40126002 </i>
   <varray name="rec_basis" >
    <v>       0.19558697       0.11292220       0.00000000 </v>
    <v>       0.00000000       0.22584436       0.00000000 </v>
    <v>       0.00000000       0.00000000       0.05449831 </v>
   </varray>
  </crystal>
  <varray name="positions" >
   <v>       0.33336847       0.16670559       0.34068491 </v>
   <v>       0.33335513       0.66665358       0.34069624 </v>
   <v>       0.83332540       0.16666727       0.34068546 </v>
   <v>       0.83329081       0.66663686       0.34068167 </v>
   <v>       0.33333300       0.16666700       0.00000000 </v>
   <v>       0.33333300       0.66666700       0.00000000 </v>
   <v>       0.83333300       0.16666700       0.00000000 </v>
   <v>       0.83333300       0.66666700       0.00000000 </v>
   <v>       0.50000000       0.50000000       0.11375398 </v>
   <v>       0.50000000       0.00000000       0.11375398 </v>
   <v>       0.00000000       0.50000000       0.11375398 </v>
   <v>       0.00000000       0.00000000       0.11375398 </v>
   <v>       0.16672662       0.33334647       0.22777579 </v>
   <v>       0.16665985       0.83333880       0.22779558 </v>
   <v>       0.66662665       0.33336826       0.22779753 </v>
   <v>       0.66665045       0.83327002       0.22777588 </v>
   <v>       0.50002146       0.49998903       0.45291383 </v>
   <v>       0.49998890       0.00001982       0.45292266 </v>
   <v>       0.99997578       0.50001264       0.45290524 </v>
   <v>       0.00001137       0.99998344       0.45284330 </v>
  </varray>
  <varray name="selective"  type="logical" >
   <v type="logical" >  T  T  T </v>
   <v type="logical" >  T  T  T </v>
   <v type="logical" >  T  T  T </v>
   <v type="logical" >  T  T  T </v>
   <v type="logical" >  F  F  F </v>
   <v type="logical" >  F  F  F </v>
   <v type="logical" >  F  F  F </v>
   <v type="logical" >  F  F  F </v>
   <v type="logical" >  F  F  F </v>
   <v type="logical" >  F  F  F </v>
   <v type="logical" >  F  F  F </v>
   <v type="logical" >  F  F  F </v>
   <v type="logical" >  T  T  T </v>
   <v type="logical" >  T  T  T </v>
   <v type="logical" >  T  T  T </v>
   <v type="logical" >  T  T  T </v>
   <v type="logical" >  T  T  T </v>
   <v type="logical" >  T  T  T </v>
   <v type="logical" >  T  T  T </v>
   <v type="logical" >  T  T  T </v>
  </varray>
  <nose>
   <v>      -3.00000000       0.00000000       0.00010000       0.00010000 </v>
  </nose>
 </structure>
 <calculation>
  <scstep>
   <time name="dav">   17.70   17.73</time>
   <time name="total">   17.73   17.76</time>
   <energy>
    <i name="alphaZ">    638.96130334 </i>
    <i name="ewald">  32690.01244999 </i>
    <i name="hartreedc"> -58017.52834635 </i>
    <i name="XCdc">    794.74715270 </i>
    <i name="pawpsdc">  22535.35167656 </i>
    <i name="pawaedc"> -24440.94042401 </i>
    <i name="eentropy">     -0.01402966 </i>
    <i name="bandstr">   1913.32125062 </i>
    <i name="atom">  25508.32158985 </i>
    <i name="e_fr_energy">   1622.23262304 </i>
    <i name="e_wo_entrp">   1622.24665270 </i>
    <i name="e_0_energy">   1622.23963787 </i>
   </energy>
  </scstep>
  <scstep>
   <time name="dav">   15.85   15.86</time>
   <time name="total">   15.85   15.86</time>
   <energy>
    <i name="e_fr_energy">    184.92023123 </i>
    <i name="e_wo_entrp">    184.94060540 </i>
    <i name="e_0_energy">    184.93041831 </i>
   </energy>
  </scstep>
  <scstep>
   <time name="dav">   17.09   17.10</time>
   <time name="total">   17.09   17.10</time>
   <energy>
    <i name="e_fr_energy">    -89.13838587 </i>
    <i name="e_wo_entrp">    -89.10032142 </i>
    <i name="e_0_energy">    -89.11935365 </i>
   </energy>
  </scstep>
  <scstep>
   <time name="dav">   18.75   18.76</time>
   <time name="total">   18.76   18.76</time>
   <energy>
    <i name="e_fr_energy">   -100.63824755 </i>
    <i name="e_wo_entrp">   -100.59838627 </i>
    <i name="e_0_energy">   -100.61831691 </i>
   </energy>
  </scstep>
  <scstep>
   <time name="dav">   23.48   23.49</time>
   <time name="total">   23.66   23.67</time>
   <energy>
    <i name="e_fr_energy">   -100.84844168 </i>
    <i name="e_wo_entrp">   -100.80856166 </i>
    <i name="e_0_energy">   -100.82850167 </i>
   </energy>
  </scstep>
  <scstep>
   <time name="dav">   22.72   22.73</time>
   <time name="total">   22.92   22.93</time>
   <energy>
    <i name="e_fr_energy">   -133.01971297 </i>
    <i name="e_wo_entrp">   -132.99707728 </i>
    <i name="e_0_energy">   -133.00839513 </i>
   </energy>
  </scstep>
  <scstep>
   <time name="dav">   22.50   22.51</time>
   <time name="total">   22.69   22.70</time>
   <energy>
    <i name="e_fr_energy">   -112.37959753 </i>
    <i name="e_wo_entrp">   -112.35404928 </i>
    <i name="e_0_energy">   -112.36682340 </i>
   </energy>
  </scstep>
  <scstep>
   <time name="dav">   23.99   23.99</time>
   <time name="total">   24.18   24.19</time>
   <energy>
    <i name="e_fr_energy">    -83.70262631 </i>
    <i name="e_wo_entrp">    -83.68626293 </i>
    <i name="e_0_energy">    -83.69444462 </i>
   </energy>
  </scstep>
  <scstep>
   <time name="dav">   24.18   24.19</time>
   <time name="total">   24.37   24.38</time>
   <energy>
    <i name="e_fr_energy">    -82.71274706 </i>
    <i name="e_wo_entrp">    -82.68783908 </i>
    <i name="e_0_energy">    -82.70029307 </i>
   </energy>
  </scstep>
  <scstep>
   <time name="dav">   26.21   26.22</time>
   <time name="total">   26.40   26.41</time>
   <energy>
    <i name="e_fr_energy">    -81.96282802 </i>
    <i name="e_wo_entrp">    -81.92988272 </i>
    <i name="e_0_energy">    -81.94635537 </i>
   </energy>
  </scstep>
  <scstep>
   <time name="dav">   18.95   18.95</time>
   <time name="total">   19.14   19.15</time>
   <energy>
    <i name="e_fr_energy">    -82.33597101 </i>
    <i name="e_wo_entrp">    -82.30449798 </i>
    <i name="e_0_energy">    -82.32023449 </i>
   </energy>
  </scstep>
  <scstep>
   <time name="dav">   26.98   26.99</time>
   <time name="total">   27.18   27.19</time>
   <energy>
    <i name="e_fr_energy">    -81.96086992 </i>
    <i name="e_wo_entrp">    -81.93779249 </i>
    <i name="e_0_energy">    -81.94933120 </i>
   </energy>
  </scstep>
  <scstep>
   <time name="dav">   21.36   21.36</time>
   <time name="total">   21.55   21.56</time>
   <energy>
    <i name="e_fr_energy">    -81.93305771 </i>
    <i name="e_wo_entrp">    -81.91437090 </i>
    <i name="e_0_energy">    -81.92371431 </i>
   </energy>
  </scstep>
  <scstep>
   <time name="dav">   22.60   22.61</time>
   <time name="total">   22.80   22.80</time>
   <energy>
    <i name="e_fr_energy">    -81.82375554 </i>
    <i name="e_wo_entrp">    -81.80174904 </i>
    <i name="e_0_energy">    -81.81275229 </i>
   </energy>
  </scstep>
  <scstep>
   <time name="dav">   23.40   23.40</time>
   <time name="total">   23.59   23.60</time>
   <energy>
    <i name="e_fr_energy">    -81.79869359 </i>
    <i name="e_wo_entrp">    -81.77739695 </i>
    <i name="e_0_energy">    -81.78804527 </i>
   </energy>
  </scstep>
  <scstep>
   <time name="dav">   21.92   21.93</time>
   <time name="total">   22.12   22.13</time>
   <energy>
    <i name="e_fr_energy">    -81.77158195 </i>
    <i name="e_wo_entrp">    -81.74685306 </i>
    <i name="e_0_energy">    -81.75921750 </i>
   </energy>
  </scstep>
  <scstep>
   <time name="dav">   22.83   22.84</time>
   <time name="total">   23.02   23.03</time>
   <energy>
    <i name="e_fr_energy">    -81.76818567 </i>
    <i name="e_wo_entrp">    -81.74425265 </i>
    <i name="e_0_energy">    -81.75621916 </i>
   </energy>
  </scstep>
  <scstep>
   <time name="dav">   24.31   24.32</time>
   <time name="total">   24.51   24.51</time>
   <energy>
    <i name="e_fr_energy">    -81.76315130 </i>
    <i name="e_wo_entrp">    -81.73762220 </i>
    <i name="e_0_energy">    -81.75038675 </i>
   </energy>
  </scstep>
  <scstep>
   <time name="dav">   21.28   21.29</time>
   <time name="total">   21.48   21.48</time>
   <energy>
    <i name="e_fr_energy">    -81.76217679 </i>
    <i name="e_wo_entrp">    -81.73695564 </i>
    <i name="e_0_energy">    -81.74956621 </i>
   </energy>
  </scstep>
  <scstep>
   <time name="dav">   19.64   19.65</time>
   <time name="total">   19.84   19.84</time>
   <energy>
    <i name="e_fr_energy">    -81.76197435 </i>
    <i name="e_wo_entrp">    -81.73784432 </i>
    <i name="e_0_energy">    -81.74990933 </i>
   </energy>
  </scstep>
  <scstep>
   <time name="dav">   18.18   18.18</time>
   <time name="total">   18.37   18.38</time>
   <energy>
    <i name="e_fr_energy">    -81.76182538 </i>
    <i name="e_wo_entrp">    -81.73753600 </i>
    <i name="e_0_energy">    -81.74968069 </i>
   </energy>
  </scstep>
  <scstep>
   <time name="dav">   16.08   16.08</time>
   <time name="total">   16.27   16.28</time>
   <energy>
    <i name="e_fr_energy">    -81.76214810 </i>
    <i name="e_wo_entrp">    -81.73756010 </i>
    <i name="e_0_energy">    -81.74985410 </i>
   </energy>
  </scstep>
  <scstep>
   <time name="dav">   17.58   17.58</time>
   <time name="total">   17.77   17.78</time>
   <energy>
    <i name="e_fr_energy">    -81.76247254 </i>
    <i name="e_wo_entrp">    -81.73786405 </i>
    <i name="e_0_energy">    -81.75016829 </i>
   </energy>
  </scstep>
  <scstep>
   <time name="dav">   17.51   17.51</time>
   <time name="total">   17.70   17.70</time>
   <energy>
    <i name="e_fr_energy">    -81.76293937 </i>
    <i name="e_wo_entrp">    -81.73833821 </i>
    <i name="e_0_energy">    -81.75063879 </i>
   </energy>
  </scstep>
  <scstep>
   <time name="dav">   17.43   17.44</time>
   <time name="total">   17.62   17.63</time>
   <energy>
    <i name="e_fr_energy">    -81.76316321 </i>
    <i name="e_wo_entrp">    -81.73865539 </i>
    <i name="e_0_energy">    -81.75090930 </i>
   </energy>
  </scstep>
  <scstep>
   <time name="dav">   16.85   16.85</time>
   <time name="total">   17.04   17.05</time>
   <energy>
    <i name="e_fr_energy">    -81.76331455 </i>
    <i name="e_wo_entrp">    -81.73885287 </i>
    <i name="e_0_energy">    -81.75108371 </i>
   </energy>
  </scstep>
  <scstep>
   <time name="dav">   17.19   17.19</time>
   <time name="total">   17.20   17.21</time>
   <energy>
    <i name="alphaZ">    638.96130334 </i>
    <i name="ewald">  32690.01244999 </i>
    <i name="hartreedc"> -57713.14894394 </i>
    <i name="XCdc">    774.95448078 </i>
    <i name="pawpsdc">  24295.30270763 </i>
    <i name="pawaedc"> -26226.50752673 </i>
    <i name="eentropy">     -0.02452796 </i>
    <i name="bandstr">    -49.63492697 </i>
    <i name="atom">  25508.32158985 </i>
    <i name="e_fr_energy">    -81.76339401 </i>
    <i name="e_wo_entrp">    -81.73886605 </i>
    <i name="e_0_energy">    -81.75113003 </i>
   </energy>
  </scstep>
  <structure>
   <crystal>
    <varray name="basis" >
     <v>       5.11281500       0.00000000       0.00000000 </v>
     <v>      -2.55640800       4.42782800       0.00000000 </v>
     <v>       0.00000000       0.00000000      18.34919384 </v>
    </varray>
    <i name="volume">    415.40126002 </i>
    <varray name="rec_basis" >
     <v>       0.19558697       0.11292220       0.00000000 </v>
     <v>       0.00000000       0.22584436       0.00000000 </v>
     <v>       0.00000000       0.00000000       0.05449831 </v>
    </varray>
   </crystal>
   <varray name="positions" >
    <v>       0.33336847       0.16670559       0.34068491 </v>
    <v>       0.33335513       0.66665358       0.34069624 </v>
    <v>       0.83332540       0.16666727       0.34068546 </v>
    <v>       0.83329081       0.66663686       0.34068167 </v>
    <v>       0.33333300       0.16666700       0.00000000 </v>
    <v>       0.33333300       0.66666700       0.00000000 </v>
    <v>       0.83333300       0.16666700       0.00000000 </v>
    <v>       0.83333300       0.66666700       0.00000000 </v>
    <v>       0.50000000       0.50000000       0.11375398 </v>
    <v>       0.50000000       0.00000000       0.11375398 </v>
    <v>       0.00000000       0.50000000       0.11375398 </v>
    <v>       0.00000000       0.00000000       0.11375398 </v>
    <v>       0.16672662       0.33334647       0.22777579 </v>
    <v>       0.16665985       0.83333880       0.22779558 </v>
    <v>       0.66662665       0.33336826       0.22779753 </v>
    <v>       0.66665045       0.83327002       0.22777588 </v>
    <v>       0.50002146       0.49998903       0.45291383 </v>
    <v>       0.49998890       0.00001982       0.45292266 </v>
    <v>       0.99997578       0.50001264       0.45290524 </v>
    <v>       0.00001137       0.99998344       0.45284330 </v>
   </varray>
  </structure>
  <varray name="forces" >
   <v>       0.00076712       0.00003909       0.02476465 </v>
   <v>      -0.00007604       0.00034160       0.02438421 </v>
   <v>      -0.00091671       0.00022455       0.02346884 </v>
   <v>       0.00016277      -0.00057048       0.02478055 </v>
   <v>      -0.00003388       0.00003227      -0.03690806 </v>
   <v>       0.00004770      -0.00001568      -0.03715960 </v>
   <v>       0.00004418      -0.00001536      -0.03702726 </v>
   <v>      -0.00002250       0.00004691      -0.03699590 </v>
   <v>       0.00019459      -0.00013089       0.02302852 </v>
   <v>      -0.00016219       0.00016735       0.02463436 </v>
   <v>      -0.00026790       0.00002096       0.02462052 </v>
   <v>       0.00012223      -0.00011676       0.02380714 </v>
   <v>      -0.00367386      -0.00081695       0.16443775 </v>
   <v>       0.00105392      -0.00053644       0.16269103 </v>
   <v>       0.00387348      -0.00227172       0.16091419 </v>
   <v>      -0.00120765       0.00367388       0.16413178 </v>
   <v>      -0.00148122       0.00052273      -0.17496064 </v>
   <v>       0.00096304      -0.00088838      -0.17613728 </v>
   <v>       0.00152761      -0.00050548      -0.17549758 </v>
   <v>      -0.00091470       0.00079880      -0.17097724 </v>
  </varray>
  <varray name="stress" >
   <v>     -55.60277300      -0.05222678       0.00090288 </v>
   <v>      -0.05222665     -55.66315209      -0.00078203 </v>
   <v>       0.00090296      -0.00078185     -27.72171285 </v>
  </varray>
  <energy>
   <i name="e_fr_energy">    -81.76339401 </i>
   <i name="e_wo_entrp">    -81.75113003 </i>
   <i name="e_0_energy">     -0.02452796 </i>
  </energy>
  <time name="totalsc">  581.75  581.98</time>
  <eigenvalues>
   <array>
    <dimension dim="1">band</dimension>
    <dimension dim="2">kpoint</dimension>
    <dimension dim="3">spin</dimension>
    <field>eigene</field>
    <field>occ</field>
    <set>
     <set comment="spin 1">
      <set comment="kpoint 1">
       <r>   -6.4351    1.0000 </r>
       <r>   -5.3300    1.0000 </r>
       <r>   -4.2862    1.0000 </r>
       <r>   -3.0347    1.0000 </r>
       <r>   -2.4103    1.0000 </r>
       <r>   -2.4102    1.0000 </r>
       <r>   -2.4102    1.0000 </r>
       <r>   -2.2780    1.0000 </r>
       <r>   -2.2553    1.0000 </r>
       <r>   -2.2553    1.0000 </r>
       <r>   -2.2552    1.0000 </r>
       <r>   -1.8905    1.0000 </r>
       <r>   -1.8904    1.0000 </r>
       <r>   -1.8903    1.0000 </r>
       <r>   -1.8315    1.0000 </r>
       <r>   -1.8314    1.0000 </r>
       <r>   -1.8314    1.0000 </r>
       <r>   -1.5659    1.0000 </r>
       <r>   -1.5659    1.0000 </r>
       <r>   -1.5656    1.0000 </r>
       <r>   -1.5245    1.0000 </r>
       <r>   -1.5245    1.0000 </r>
       <r>   -1.5241    1.0000 </r>
       <r>   -1.1508    1.0000 </r>
       <r>   -1.1506    1.0000 </r>
       <r>   -1.1505    1.0000 </r>
       <r>   -0.9242    1.0000 </r>
       <r>   -0.9240    1.0000 </r>
       <r>   -0.9240    1.0000 </r>
       <r>   -0.7432    1.0000 </r>
       <r>   -0.7431    1.0000 </r>
       <r>   -0.7431    1.0000 </r>
       <r>   -0.7081    1.0000 </r>
       <r>   -0.6213    1.0000 </r>
       <r>   -0.6212    1.0000 </r>
       <r>   -0.6035    1.0000 </r>
       <r>   -0.4729    1.0000 </r>
       <r>   -0.4728    1.0000 </r>
       <r>   -0.4516    1.0000 </r>
       <r>   -0.4515    1.0000 </r>
       <r>   -0.4515    1.0000 </r>
       <r>   -0.3536    1.0000 </r>
       <r>   -0.3535    1.0000 </r>
       <r>   -0.2295    1.0000 </r>
       <r>   -0.2291    1.0000 </r>
       <r>   -0.2290    1.0000 </r>
       <r>   -0.1008    1.0000 </r>
       <r>   -0.1007    1.0000 </r>
       <r>   -0.1007    1.0000 </r>
       <r>   -0.0427    1.0000 </r>
       <r>   -0.0426    1.0000 </r>
       <r>    0.0077    1.0000 </r>
       <r>    0.1059    1.0000 </r>
       <r>    0.1059    1.0000 </r>
       <r>    0.1060    1.0000 </r>
       <r>    0.1759    1.0000 </r>
       <r>    0.1759    1.0000 </r>
       <r>    0.3041    1.0000 </r>
       <r>    0.3041    1.0000 </r>
       <r>    0.3042    1.0000 </r>
       <r>    0.3620    1.0000 </r>
       <r>    0.3620    1.0000 </r>
       <r>    0.4410    1.0000 </r>
       <r>    0.4411    1.0000 </r>
       <r>    0.4417    1.0000 </r>
       <r>    0.4796    1.0000 </r>
       <r>    0.4797    1.0000 </r>
       <r>    0.4798    1.0000 </r>
       <r>    0.5768    1.0000 </r>
       <r>    0.6087    1.0000 </r>
       <r>    0.6087    1.0000 </r>
       <r>    0.6088    1.0000 </r>
       <r>    0.6442    1.0000 </r>
       <r>    0.6442    1.0000 </r>
       <r>    0.7116    1.0000 </r>
       <r>    0.7116    1.0000 </r>
       <r>    0.7369    1.0000 </r>
       <r>    0.7369    1.0000 </r>
       <r>    0.7370    1.0000 </r>
       <r>    0.8995    1.0000 </r>
       <r>    0.8996    1.0000 </r>
       <r>    0.8996    1.0000 </r>
       <r>    0.9401    1.0000 </r>
       <r>    0.9402    1.0000 </r>
       <r>    0.9402    1.0000 </r>
       <r>    1.1347    1.0000 </r>
       <r>    1.1348    1.0000 </r>
       <r>    1.1349    1.0000 </r>
       <r>    1.2411    1.0000 </r>
       <r>    1.2412    1.0000 </r>
       <r>    1.2415    1.0000 </r>
       <r>    1.4033    1.0000 </r>
       <r>    1.4033    1.0000 </r>
       <r>    1.6644    1.0000 </r>
       <r>    1.6708    1.0000 </r>
       <r>    1.6710    1.0000 </r>
       <r>    1.6711    1.0000 </r>
       <r>    2.2668    0.9999 </r>
       <r>    2.2669    0.9999 </r>
       <r>    2.2670    0.9999 </r>
       <r>    2.3227    0.9836 </r>
       <r>    2.3228    0.9835 </r>
       <r>    2.3228    0.9835 </r>
       <r>    2.3924    0.5649 </r>
       <r>    2.4943    0.0033 </r>
       <r>    2.4943    0.0033 </r>
       <r>    2.9731    0.0000 </r>
       <r>    2.9732    0.0000 </r>
       <r>    2.9732    0.0000 </r>
       <r>    3.1192    0.0000 </r>
       <r>    3.1194    0.0000 </r>
       <r>    3.1194    0.0000 </r>
       <r>    3.7549    0.0000 </r>
       <r>    3.7549    0.0000 </r>
       <r>    3.7550    0.0000 </r>
       <r>    4.3917    0.0000 </r>
       <r>    4.3921    0.0000 </r>
       <r>    4.3921    0.0000 </r>
       <r>    4.6667    0.0000 </r>
       <r>    4.6671    0.0000 </r>
       <r>    4.6672    0.0000 </r>
       <r>    6.4665    0.0000 </r>
       <r>    6.8415    0.0000 </r>
       <r>    6.8416    0.0000 </r>
       <r>    6.8417    0.0000 </r>
       <r>    7.7670    0.0000 </r>
       <r>    7.8050    0.0000 </r>
       <r>    7.8051    0.0000 </r>
       <r>    7.8053    0.0000 </r>
       <r>    8.2207    0.0000 </r>
       <r>    8.2207    0.0000 </r>
       <r>    8.2209    0.0000 </r>
       <r>    8.4427    0.0000 </r>
       <r>    9.6471    0.0000 </r>
       <r>    9.6471    0.0000 </r>
       <r>    9.6473    0.0000 </r>
       <r>   10.8092    0.0000 </r>
       <r>   10.8095    0.0000 </r>
       <r>   10.8096    0.0000 </r>
       <r>   11.2633    0.0000 </r>
       <r>   11.5140    0.0000 </r>
       <r>   11.5141    0.0000 </r>
       <r>   11.5145    0.0000 </r>
       <r>   11.9435    0.0000 </r>
       <r>   12.4663    0.0000 </r>
       <r>   12.4664    0.0000 </r>
       <r>   12.4664    0.0000 </r>
       <r>   13.5223    0.0000 </r>
       <r>   13.5225    0.0000 </r>
       <r>   13.5225    0.0000 </r>
       <r>   13.8041    0.0000 </r>
       <r>   13.8041    0.0000 </r>
       <r>   13.8044    0.0000 </r>
       <r>   14.7334    0.0000 </r>
       <r>   14.7335    0.0000 </r>
       <r>   14.7335    0.0000 </r>
       <r>   15.3977    0.0000 </r>
       <r>   15.3981    0.0000 </r>
       <r>   15.3982    0.0000 </r>
       <r>   15.4571    0.0000 </r>
       <r>   15.4573    0.0000 </r>
       <r>   15.4574    0.0000 </r>
       <r>   15.6874    0.0000 </r>
       <r>   15.6874    0.0000 </r>
       <r>   15.6875    0.0000 </r>
       <r>   15.9662    0.0000 </r>
       <r>   16.1364    0.0000 </r>
       <r>   16.1364    0.0000 </r>
       <r>   16.1364    0.0000 </r>
       <r>   16.3448    0.0000 </r>
       <r>   17.4929    0.0000 </r>
       <r>   17.4929    0.0000 </r>
       <r>   17.4931    0.0000 </r>
       <r>   18.0125    0.0000 </r>
       <r>   18.0127    0.0000 </r>
       <r>   18.0128    0.0000 </r>
       <r>   18.6620    0.0000 </r>
       <r>   18.6620    0.0000 </r>
       <r>   18.6621    0.0000 </r>
       <r>   18.9221    0.0000 </r>
       <r>   18.9222    0.0000 </r>
       <r>   18.9222    0.0000 </r>
       <r>   19.2120    0.0000 </r>
       <r>   19.2122    0.0000 </r>
       <r>   19.2123    0.0000 </r>
       <r>   19.9794    0.0000 </r>
       <r>   19.9795    0.0000 </r>
       <r>   19.9796    0.0000 </r>
       <r>   21.1655    0.0000 </r>
       <r>   21.1656    0.0000 </r>
       <r>   21.1656    0.0000 </r>
       <r>   21.2564    0.0000 </r>
       <r>   21.4159    0.0000 </r>
       <r>   21.4160    0.0000 </r>
       <r>   21.4160    0.0000 </r>
       <r>   21.7922    0.0000 </r>
       <r>   22.1163    0.0000 </r>
       <r>   22.1164    0.0000 </r>
       <r>   22.1164    0.0000 </r>
       <r>   22.4457    0.0000 </r>
       <r>   22.4459    0.0000 </r>
       <r>   22.4460    0.0000 </r>
       <r>   22.8328    0.0000 </r>
       <r>   22.8330    0.0000 </r>
       <r>   22.8334    0.0000 </r>
       <r>   23.5516    0.0000 </r>
       <r>   23.5517    0.0000 </r>
       <r>   23.5517    0.0000 </r>
       <r>   23.6145    0.0000 </r>
       <r>   23.6147    0.0000 </r>
       <r>   23.6148    0.0000 </r>
       <r>   23.7725    0.0000 </r>
       <r>   23.7961    0.0000 </r>
       <r>   23.7961    0.0000 </r>
       <r>   23.7961    0.0000 </r>
       <r>   24.3590    0.0000 </r>
       <r>   24.3591    0.0000 </r>
       <r>   24.3592    0.0000 </r>
       <r>   24.3775    0.0000 </r>
       <r>   24.7939    0.0000 </r>
       <r>   24.7940    0.0000 </r>
       <r>   24.8752    0.0000 </r>
       <r>   24.8753    0.0000 </r>
       <r>   24.8755    0.0000 </r>
       <r>   25.0052    0.0000 </r>
       <r>   25.0052    0.0000 </r>
       <r>   25.0056    0.0000 </r>
       <r>   25.2249    0.0000 </r>
       <r>   25.2256    0.0000 </r>
       <r>   25.2257    0.0000 </r>
       <r>   25.2903    0.0000 </r>
       <r>   25.4721    0.0000 </r>
       <r>   25.5403    0.0000 </r>
       <r>   25.5404    0.0000 </r>
       <r>   25.9059    0.0000 </r>
       <r>   26.2682    0.0000 </r>
       <r>   26.2683    0.0000 </r>
       <r>   26.8095    0.0000 </r>
       <r>   26.8096    0.0000 </r>
       <r>   27.3372    0.0000 </r>
       <r>   27.4142    0.0000 </r>
       <r>   27.4142    0.0000 </r>
       <r>   27.4145    0.0000 </r>
       <r>   27.6470    0.0000 </r>
       <r>   27.6471    0.0000 </r>
       <r>   28.3340    0.0000 </r>
       <r>   28.3340    0.0000 </r>
       <r>   28.3344    0.0000 </r>
       <r>   28.3543    0.0000 </r>
       <r>   28.3543    0.0000 </r>
       <r>   28.4180    0.0000 </r>
       <r>   28.4188    0.0000 </r>
       <r>   28.4190    0.0000 </r>
       <r>   28.7068    0.0000 </r>
       <r>   29.1716    0.0000 </r>
       <r>   29.1719    0.0000 </r>
       <r>   29.1719    0.0000 </r>
       <r>   29.3959    0.0000 </r>
       <r>   29.3963    0.0000 </r>
       <r>   29.3963    0.0000 </r>
       <r>   29.6838    0.0000 </r>
       <r>   29.6842    0.0000 </r>
       <r>   29.6855    0.0000 </r>
       <r>   29.7746    0.0000 </r>
       <r>   29.7746    0.0000 </r>
       <r>   30.1230    0.0000 </r>
       <r>   30.1238    0.0000 </r>
       <r>   30.1240    0.0000 </r>
       <r>   30.3495    0.0000 </r>
       <r>   30.3495    0.0000 </r>
       <r>   30.4155    0.0000 </r>
       <r>   30.4155    0.0000 </r>
       <r>   30.4160    0.0000 </r>
       <r>   30.5566    0.0000 </r>
       <r>   30.5566    0.0000 </r>
       <r>   30.5568    0.0000 </r>
       <r>   30.9909    0.0000 </r>
       <r>   30.9916    0.0000 </r>
       <r>   30.9918    0.0000 </r>
       <r>   31.8093    0.0000 </r>
       <r>   31.8093    0.0000 </r>
       <r>   32.1734    0.0000 </r>
       <r>   32.3016    0.0000 </r>
       <r>   32.3017    0.0000 </r>
       <r>   32.3675    0.0000 </r>
       <r>   32.8238    0.0000 </r>
       <r>   32.9205    0.0000 </r>
       <r>   32.9212    0.0000 </r>
      </set>
      <set comment="kpoint 2">
       <r>   -6.3098    1.0000 </r>
       <r>   -5.2070    1.0000 </r>
       <r>   -4.1698    1.0000 </r>
       <r>   -2.9338    1.0000 </r>
       <r>   -2.5170    1.0000 </r>
       <r>   -2.3780    1.0000 </r>
       <r>   -2.3780    1.0000 </r>
       <r>   -2.2678    1.0000 </r>
       <r>   -2.2121    1.0000 </r>
       <r>   -2.2120    1.0000 </r>
       <r>   -2.1929    1.0000 </r>
       <r>   -1.8929    1.0000 </r>
       <r>   -1.8478    1.0000 </r>
       <r>   -1.8478    1.0000 </r>
       <r>   -1.8257    1.0000 </r>
       <r>   -1.7896    1.0000 </r>
       <r>   -1.7895    1.0000 </r>
       <r>   -1.6492    1.0000 </r>
       <r>   -1.5592    1.0000 </r>
       <r>   -1.5591    1.0000 </r>
       <r>   -1.4470    1.0000 </r>
       <r>   -1.4466    1.0000 </r>
       <r>   -1.4463    1.0000 </r>
       <r>   -1.1380    1.0000 </r>
       <r>   -1.1260    1.0000 </r>
       <r>   -1.1259    1.0000 </r>
       <r>   -0.9075    1.0000 </r>
       <r>   -0.9074    1.0000 </r>
       <r>   -0.9056    1.0000 </r>
       <r>   -0.7338    1.0000 </r>
       <r>   -0.7337    1.0000 </r>
       <r>   -0.7325    1.0000 </r>
       <r>   -0.7125    1.0000 </r>
       <r>   -0.6970    1.0000 </r>
       <r>   -0.6184    1.0000 </r>
       <r>   -0.5795    1.0000 </r>
       <r>   -0.4909    1.0000 </r>
       <r>   -0.4909    1.0000 </r>
       <r>   -0.4671    1.0000 </r>
       <r>   -0.4397    1.0000 </r>
       <r>   -0.4372    1.0000 </r>
       <r>   -0.3734    1.0000 </r>
       <r>   -0.3114    1.0000 </r>
       <r>   -0.2755    1.0000 </r>
       <r>   -0.2545    1.0000 </r>
       <r>   -0.2543    1.0000 </r>
       <r>   -0.1604    1.0000 </r>
       <r>   -0.1603    1.0000 </r>
       <r>   -0.1598    1.0000 </r>
       <r>   -0.0939    1.0000 </r>
       <r>   -0.0610    1.0000 </r>
       <r>    0.0000    1.0000 </r>
       <r>    0.0725    1.0000 </r>
       <r>    0.0726    1.0000 </r>
       <r>    0.1111    1.0000 </r>
       <r>    0.1465    1.0000 </r>
       <r>    0.1593    1.0000 </r>
       <r>    0.2910    1.0000 </r>
       <r>    0.2912    1.0000 </r>
       <r>    0.3034    1.0000 </r>
       <r>    0.3319    1.0000 </r>
       <r>    0.3657    1.0000 </r>
       <r>    0.3776    1.0000 </r>
       <r>    0.3781    1.0000 </r>
       <r>    0.4312    1.0000 </r>
       <r>    0.4489    1.0000 </r>
       <r>    0.4782    1.0000 </r>
       <r>    0.4784    1.0000 </r>
       <r>    0.5130    1.0000 </r>
       <r>    0.5510    1.0000 </r>
       <r>    0.5577    1.0000 </r>
       <r>    0.5578    1.0000 </r>
       <r>    0.5968    1.0000 </r>
       <r>    0.6448    1.0000 </r>
       <r>    0.6524    1.0000 </r>
       <r>    0.6525    1.0000 </r>
       <r>    0.6984    1.0000 </r>
       <r>    0.7064    1.0000 </r>
       <r>    0.7551    1.0000 </r>
       <r>    0.7552    1.0000 </r>
       <r>    0.7861    1.0000 </r>
       <r>    0.8500    1.0000 </r>
       <r>    0.8566    1.0000 </r>
       <r>    0.8567    1.0000 </r>
       <r>    0.8899    1.0000 </r>
       <r>    0.9688    1.0000 </r>
       <r>    1.0016    1.0000 </r>
       <r>    1.0017    1.0000 </r>
       <r>    1.1859    1.0000 </r>
       <r>    1.2529    1.0000 </r>
       <r>    1.2531    1.0000 </r>
       <r>    1.3501    1.0000 </r>
       <r>    1.4044    1.0000 </r>
       <r>    1.4486    1.0000 </r>
       <r>    1.7363    1.0000 </r>
       <r>    1.7364    1.0000 </r>
       <r>    1.7365    1.0000 </r>
       <r>    1.9241    1.0000 </r>
       <r>    2.1751    1.0000 </r>
       <r>    2.1751    1.0000 </r>
       <r>    2.1943    1.0000 </r>
       <r>    2.2786    0.9996 </r>
       <r>    2.3090    0.9941 </r>
       <r>    2.3091    0.9941 </r>
       <r>    2.4869    0.0060 </r>
       <r>    2.5267    0.0001 </r>
       <r>    2.7023    0.0000 </r>
       <r>    2.7023    0.0000 </r>
       <r>    2.9005    0.0000 </r>
       <r>    2.9688    0.0000 </r>
       <r>    3.2254    0.0000 </r>
       <r>    3.2417    0.0000 </r>
       <r>    3.2417    0.0000 </r>
       <r>    3.9014    0.0000 </r>
       <r>    3.9014    0.0000 </r>
       <r>    4.2908    0.0000 </r>
       <r>    4.4141    0.0000 </r>
       <r>    4.4142    0.0000 </r>
       <r>    5.2471    0.0000 </r>
       <r>    5.2476    0.0000 </r>
       <r>    5.6136    0.0000 </r>
       <r>    6.5720    0.0000 </r>
       <r>    6.9797    0.0000 </r>
       <r>    6.9797    0.0000 </r>
       <r>    7.1544    0.0000 </r>
       <r>    7.8834    0.0000 </r>
       <r>    7.8956    0.0000 </r>
       <r>    7.8958    0.0000 </r>
       <r>    8.1230    0.0000 </r>
       <r>    8.3897    0.0000 </r>
       <r>    8.3900    0.0000 </r>
       <r>    8.4009    0.0000 </r>
       <r>    8.5245    0.0000 </r>
       <r>    9.7026    0.0000 </r>
       <r>    9.7027    0.0000 </r>
       <r>    9.7591    0.0000 </r>
       <r>   10.7678    0.0000 </r>
       <r>   11.0655    0.0000 </r>
       <r>   11.0657    0.0000 </r>
       <r>   11.3618    0.0000 </r>
       <r>   11.3620    0.0000 </r>
       <r>   11.3822    0.0000 </r>
       <r>   11.7208    0.0000 </r>
       <r>   12.0361    0.0000 </r>
       <r>   12.2895    0.0000 </r>
       <r>   12.8792    0.0000 </r>
       <r>   12.8793    0.0000 </r>
       <r>   13.0784    0.0000 </r>
       <r>   13.0785    0.0000 </r>
       <r>   13.3947    0.0000 </r>
       <r>   13.8493    0.0000 </r>
       <r>   13.9655    0.0000 </r>
       <r>   14.2853    0.0000 </r>
       <r>   14.2854    0.0000 </r>
       <r>   14.6633    0.0000 </r>
       <r>   14.6635    0.0000 </r>
       <r>   14.7389    0.0000 </r>
       <r>   14.7391    0.0000 </r>
       <r>   15.1106    0.0000 </r>
       <r>   15.1106    0.0000 </r>
       <r>   15.4898    0.0000 </r>
       <r>   16.0316    0.0000 </r>
       <r>   16.0318    0.0000 </r>
       <r>   16.0792    0.0000 </r>
       <r>   16.3194    0.0000 </r>
       <r>   16.3587    0.0000 </r>
       <r>   16.4172    0.0000 </r>
       <r>   16.4175    0.0000 </r>
       <r>   16.4478    0.0000 </r>
       <r>   16.5961    0.0000 </r>
       <r>   16.5963    0.0000 </r>
       <r>   17.2111    0.0000 </r>
       <r>   17.5062    0.0000 </r>
       <r>   17.6110    0.0000 </r>
       <r>   17.6110    0.0000 </r>
       <r>   17.6751    0.0000 </r>
       <r>   17.8932    0.0000 </r>
       <r>   17.9751    0.0000 </r>
       <r>   17.9756    0.0000 </r>
       <r>   18.1413    0.0000 </r>
       <r>   18.1413    0.0000 </r>
       <r>   19.0894    0.0000 </r>
       <r>   19.5660    0.0000 </r>
       <r>   19.5661    0.0000 </r>
       <r>   20.1184    0.0000 </r>
       <r>   20.1185    0.0000 </r>
       <r>   20.4726    0.0000 </r>
       <r>   20.4728    0.0000 </r>
       <r>   20.7185    0.0000 </r>
       <r>   20.8351    0.0000 </r>
       <r>   21.2732    0.0000 </r>
       <r>   21.3324    0.0000 </r>
       <r>   21.3633    0.0000 </r>
       <r>   21.5295    0.0000 </r>
       <r>   21.6925    0.0000 </r>
       <r>   21.6925    0.0000 </r>
       <r>   21.8619    0.0000 </r>
       <r>   22.0681    0.0000 </r>
       <r>   22.2203    0.0000 </r>
       <r>   22.2913    0.0000 </r>
       <r>   22.2915    0.0000 </r>
       <r>   22.4017    0.0000 </r>
       <r>   22.4017    0.0000 </r>
       <r>   22.7312    0.0000 </r>
       <r>   22.9469    0.0000 </r>
       <r>   23.0792    0.0000 </r>
       <r>   23.0792    0.0000 </r>
       <r>   23.3747    0.0000 </r>
       <r>   23.3750    0.0000 </r>
       <r>   23.4208    0.0000 </r>
       <r>   23.5135    0.0000 </r>
       <r>   23.6433    0.0000 </r>
       <r>   23.7236    0.0000 </r>
       <r>   23.9074    0.0000 </r>
       <r>   23.9656    0.0000 </r>
       <r>   23.9657    0.0000 </r>
       <r>   24.1980    0.0000 </r>
       <r>   24.3824    0.0000 </r>
       <r>   24.3828    0.0000 </r>
       <r>   24.4862    0.0000 </r>
       <r>   24.4867    0.0000 </r>
       <r>   24.5279    0.0000 </r>
       <r>   24.6827    0.0000 </r>
       <r>   24.7552    0.0000 </r>
       <r>   24.9653    0.0000 </r>
       <r>   25.0827    0.0000 </r>
       <r>   25.1553    0.0000 </r>
       <r>   25.1556    0.0000 </r>
       <r>   25.4801    0.0000 </r>
       <r>   25.4807    0.0000 </r>
       <r>   25.5158    0.0000 </r>
       <r>   25.5742    0.0000 </r>
       <r>   25.6807    0.0000 </r>
       <r>   25.6812    0.0000 </r>
       <r>   25.7367    0.0000 </r>
       <r>   26.2394    0.0000 </r>
       <r>   26.5032    0.0000 </r>
       <r>   26.7622    0.0000 </r>
       <r>   27.1672    0.0000 </r>
       <r>   27.1675    0.0000 </r>
       <r>   27.2525    0.0000 </r>
       <r>   27.4428    0.0000 </r>
       <r>   27.5045    0.0000 </r>
       <r>   27.5971    0.0000 </r>
       <r>   27.6897    0.0000 </r>
       <r>   27.6899    0.0000 </r>
       <r>   27.9804    0.0000 </r>
       <r>   28.1933    0.0000 </r>
       <r>   28.2558    0.0000 </r>
       <r>   28.3907    0.0000 </r>
       <r>   28.3914    0.0000 </r>
       <r>   28.4587    0.0000 </r>
       <r>   28.7354    0.0000 </r>
       <r>   28.7357    0.0000 </r>
       <r>   28.8166    0.0000 </r>
       <r>   28.9746    0.0000 </r>
       <r>   29.0157    0.0000 </r>
       <r>   29.0162    0.0000 </r>
       <r>   29.3057    0.0000 </r>
       <r>   29.4836    0.0000 </r>
       <r>   29.4837    0.0000 </r>
       <r>   29.6745    0.0000 </r>
       <r>   29.7590    0.0000 </r>
       <r>   29.9476    0.0000 </r>
       <r>   30.1463    0.0000 </r>
       <r>   30.4225    0.0000 </r>
       <r>   30.4232    0.0000 </r>
       <r>   30.4972    0.0000 </r>
       <r>   30.5292    0.0000 </r>
       <r>   30.5400    0.0000 </r>
       <r>   30.5978    0.0000 </r>
       <r>   30.6659    0.0000 </r>
       <r>   30.6758    0.0000 </r>
       <r>   30.6763    0.0000 </r>
       <r>   31.0942    0.0000 </r>
       <r>   31.0959    0.0000 </r>
       <r>   31.3973    0.0000 </r>
       <r>   31.3975    0.0000 </r>
       <r>   31.4025    0.0000 </r>
       <r>   31.4939    0.0000 </r>
       <r>   31.5968    0.0000 </r>
       <r>   31.5971    0.0000 </r>
       <r>   31.7070    0.0000 </r>
       <r>   31.8544    0.0000 </r>
       <r>   32.0414    0.0000 </r>
       <r>   32.7525    0.0000 </r>
       <r>   32.7530    0.0000 </r>
       <r>   32.8873    0.0000 </r>
      </set>
      <set comment="kpoint 3">
       <r>   -5.9392    1.0000 </r>
       <r>   -4.8456    1.0000 </r>
       <r>   -3.8312    1.0000 </r>
       <r>   -2.9320    1.0000 </r>
       <r>   -2.6490    1.0000 </r>
       <r>   -2.3895    1.0000 </r>
       <r>   -2.2888    1.0000 </r>
       <r>   -2.2887    1.0000 </r>
       <r>   -2.0924    1.0000 </r>
       <r>   -2.0922    1.0000 </r>
       <r>   -2.0206    1.0000 </r>
       <r>   -1.9578    1.0000 </r>
       <r>   -1.8028    1.0000 </r>
       <r>   -1.7339    1.0000 </r>
       <r>   -1.7339    1.0000 </r>
       <r>   -1.6841    1.0000 </r>
       <r>   -1.6841    1.0000 </r>
       <r>   -1.6414    1.0000 </r>
       <r>   -1.4778    1.0000 </r>
       <r>   -1.4778    1.0000 </r>
       <r>   -1.3504    1.0000 </r>
       <r>   -1.2924    1.0000 </r>
       <r>   -1.2921    1.0000 </r>
       <r>   -1.0976    1.0000 </r>
       <r>   -1.0655    1.0000 </r>
       <r>   -1.0653    1.0000 </r>
       <r>   -0.8928    1.0000 </r>
       <r>   -0.8928    1.0000 </r>
       <r>   -0.8761    1.0000 </r>
       <r>   -0.8528    1.0000 </r>
       <r>   -0.7691    1.0000 </r>
       <r>   -0.7205    1.0000 </r>
       <r>   -0.7204    1.0000 </r>
       <r>   -0.7071    1.0000 </r>
       <r>   -0.6414    1.0000 </r>
       <r>   -0.5401    1.0000 </r>
       <r>   -0.5399    1.0000 </r>
       <r>   -0.4919    1.0000 </r>
       <r>   -0.4626    1.0000 </r>
       <r>   -0.4096    1.0000 </r>
       <r>   -0.3983    1.0000 </r>
       <r>   -0.3975    1.0000 </r>
       <r>   -0.3975    1.0000 </r>
       <r>   -0.3747    1.0000 </r>
       <r>   -0.3519    1.0000 </r>
       <r>   -0.3395    1.0000 </r>
       <r>   -0.2947    1.0000 </r>
       <r>   -0.2946    1.0000 </r>
       <r>   -0.2660    1.0000 </r>
       <r>   -0.1905    1.0000 </r>
       <r>   -0.1475    1.0000 </r>
       <r>    0.0036    1.0000 </r>
       <r>    0.0038    1.0000 </r>
       <r>    0.0713    1.0000 </r>
       <r>    0.1143    1.0000 </r>
       <r>    0.1189    1.0000 </r>
       <r>    0.1373    1.0000 </r>
       <r>    0.1579    1.0000 </r>
       <r>    0.1580    1.0000 </r>
       <r>    0.2032    1.0000 </r>
       <r>    0.2086    1.0000 </r>
       <r>    0.2207    1.0000 </r>
       <r>    0.2209    1.0000 </r>
       <r>    0.2982    1.0000 </r>
       <r>    0.2987    1.0000 </r>
       <r>    0.3128    1.0000 </r>
       <r>    0.3313    1.0000 </r>
       <r>    0.3697    1.0000 </r>
       <r>    0.4566    1.0000 </r>
       <r>    0.4732    1.0000 </r>
       <r>    0.4732    1.0000 </r>
       <r>    0.4988    1.0000 </r>
       <r>    0.5031    1.0000 </r>
       <r>    0.5031    1.0000 </r>
       <r>    0.5257    1.0000 </r>
       <r>    0.5319    1.0000 </r>
       <r>    0.5828    1.0000 </r>
       <r>    0.5829    1.0000 </r>
       <r>    0.6251    1.0000 </r>
       <r>    0.6413    1.0000 </r>
       <r>    0.6934    1.0000 </r>
       <r>    0.6947    1.0000 </r>
       <r>    0.6948    1.0000 </r>
       <r>    0.7110    1.0000 </r>
       <r>    0.7690    1.0000 </r>
       <r>    0.7865    1.0000 </r>
       <r>    0.7865    1.0000 </r>
       <r>    0.8148    1.0000 </r>
       <r>    0.9877    1.0000 </r>
       <r>    1.0121    1.0000 </r>
       <r>    1.0318    1.0000 </r>
       <r>    1.2798    1.0000 </r>
       <r>    1.3195    1.0000 </r>
       <r>    1.3196    1.0000 </r>
       <r>    1.5861    1.0000 </r>
       <r>    1.8306    1.0000 </r>
       <r>    1.8306    1.0000 </r>
       <r>    1.9617    1.0000 </r>
       <r>    2.0341    1.0000 </r>
       <r>    2.0342    1.0000 </r>
       <r>    2.0672    1.0000 </r>
       <r>    2.0673    1.0000 </r>
       <r>    2.0866    1.0000 </r>
       <r>    2.3086    0.9943 </r>
       <r>    2.3590    0.8657 </r>
       <r>    2.4654    0.0285 </r>
       <r>    2.4798    0.0105 </r>
       <r>    2.4798    0.0104 </r>
       <r>    2.5543    0.0000 </r>
       <r>    2.6993    0.0000 </r>
       <r>    3.4372    0.0000 </r>
       <r>    3.4372    0.0000 </r>
       <r>    3.7061    0.0000 </r>
       <r>    3.7124    0.0000 </r>
       <r>    3.8896    0.0000 </r>
       <r>    3.8896    0.0000 </r>
       <r>    4.9822    0.0000 </r>
       <r>    4.9825    0.0000 </r>
       <r>    5.7752    0.0000 </r>
       <r>    6.1588    0.0000 </r>
       <r>    6.1593    0.0000 </r>
       <r>    6.8862    0.0000 </r>
       <r>    7.3782    0.0000 </r>
       <r>    7.3783    0.0000 </r>
       <r>    7.8423    0.0000 </r>
       <r>    8.2329    0.0000 </r>
       <r>    8.3565    0.0000 </r>
       <r>    8.3566    0.0000 </r>
       <r>    8.5111    0.0000 </r>
       <r>    8.6985    0.0000 </r>
       <r>    8.6989    0.0000 </r>
       <r>    8.7784    0.0000 </r>
       <r>    9.3445    0.0000 </r>
       <r>   10.0787    0.0000 </r>
       <r>   10.0790    0.0000 </r>
       <r>   10.2485    0.0000 </r>
       <r>   10.8696    0.0000 </r>
       <r>   11.0327    0.0000 </r>
       <r>   11.0328    0.0000 </r>
       <r>   11.7379    0.0000 </r>
       <r>   11.9416    0.0000 </r>
       <r>   12.0147    0.0000 </r>
       <r>   12.0148    0.0000 </r>
       <r>   12.1941    0.0000 </r>
       <r>   12.3161    0.0000 </r>
       <r>   12.4530    0.0000 </r>
       <r>   12.5771    0.0000 </r>
       <r>   12.5773    0.0000 </r>
       <r>   13.1453    0.0000 </r>
       <r>   13.1454    0.0000 </r>
       <r>   13.7614    0.0000 </r>
       <r>   13.7615    0.0000 </r>
       <r>   14.1307    0.0000 </r>
       <r>   14.1307    0.0000 </r>
       <r>   14.2708    0.0000 </r>
       <r>   14.2709    0.0000 </r>
       <r>   14.3029    0.0000 </r>
       <r>   14.5726    0.0000 </r>
       <r>   14.5729    0.0000 </r>
       <r>   15.2470    0.0000 </r>
       <r>   15.5118    0.0000 </r>
       <r>   15.5120    0.0000 </r>
       <r>   15.6626    0.0000 </r>
       <r>   15.9397    0.0000 </r>
       <r>   15.9399    0.0000 </r>
       <r>   16.1487    0.0000 </r>
       <r>   16.4147    0.0000 </r>
       <r>   16.7485    0.0000 </r>
       <r>   16.7622    0.0000 </r>
       <r>   16.7625    0.0000 </r>
       <r>   16.8543    0.0000 </r>
       <r>   17.3230    0.0000 </r>
       <r>   17.3230    0.0000 </r>
       <r>   17.7180    0.0000 </r>
       <r>   17.7181    0.0000 </r>
       <r>   17.7983    0.0000 </r>
       <r>   17.8736    0.0000 </r>
       <r>   17.8738    0.0000 </r>
       <r>   18.2073    0.0000 </r>
       <r>   18.2682    0.0000 </r>
       <r>   18.2685    0.0000 </r>
       <r>   19.0438    0.0000 </r>
       <r>   19.2219    0.0000 </r>
       <r>   19.5335    0.0000 </r>
       <r>   19.5335    0.0000 </r>
       <r>   19.5801    0.0000 </r>
       <r>   19.5956    0.0000 </r>
       <r>   20.1748    0.0000 </r>
       <r>   20.2587    0.0000 </r>
       <r>   20.7000    0.0000 </r>
       <r>   20.9839    0.0000 </r>
       <r>   21.1332    0.0000 </r>
       <r>   21.1336    0.0000 </r>
       <r>   21.2697    0.0000 </r>
       <r>   21.2698    0.0000 </r>
       <r>   21.3694    0.0000 </r>
       <r>   21.3696    0.0000 </r>
       <r>   21.6688    0.0000 </r>
       <r>   21.7339    0.0000 </r>
       <r>   21.7396    0.0000 </r>
       <r>   21.8213    0.0000 </r>
       <r>   21.9691    0.0000 </r>
       <r>   21.9692    0.0000 </r>
       <r>   22.2549    0.0000 </r>
       <r>   22.4098    0.0000 </r>
       <r>   22.5275    0.0000 </r>
       <r>   22.7764    0.0000 </r>
       <r>   22.8104    0.0000 </r>
       <r>   22.8105    0.0000 </r>
       <r>   23.0441    0.0000 </r>
       <r>   23.1421    0.0000 </r>
       <r>   23.4660    0.0000 </r>
       <r>   23.4660    0.0000 </r>
       <r>   23.4709    0.0000 </r>
       <r>   23.8481    0.0000 </r>
       <r>   24.0762    0.0000 </r>
       <r>   24.0959    0.0000 </r>
       <r>   24.2262    0.0000 </r>
       <r>   24.4270    0.0000 </r>
       <r>   24.8121    0.0000 </r>
       <r>   24.9453    0.0000 </r>
       <r>   24.9453    0.0000 </r>
       <r>   25.0300    0.0000 </r>
       <r>   25.0301    0.0000 </r>
       <r>   25.0526    0.0000 </r>
       <r>   25.1385    0.0000 </r>
       <r>   25.1386    0.0000 </r>
       <r>   25.3054    0.0000 </r>
       <r>   25.4521    0.0000 </r>
       <r>   25.4524    0.0000 </r>
       <r>   25.6533    0.0000 </r>
       <r>   25.8727    0.0000 </r>
       <r>   26.0199    0.0000 </r>
       <r>   26.0923    0.0000 </r>
       <r>   26.0924    0.0000 </r>
       <r>   26.2304    0.0000 </r>
       <r>   26.4720    0.0000 </r>
       <r>   26.5577    0.0000 </r>
       <r>   26.5614    0.0000 </r>
       <r>   26.5615    0.0000 </r>
       <r>   27.0678    0.0000 </r>
       <r>   27.0680    0.0000 </r>
       <r>   27.1657    0.0000 </r>
       <r>   27.7640    0.0000 </r>
       <r>   27.7643    0.0000 </r>
       <r>   27.7724    0.0000 </r>
       <r>   27.8085    0.0000 </r>
       <r>   27.9713    0.0000 </r>
       <r>   27.9716    0.0000 </r>
       <r>   28.1069    0.0000 </r>
       <r>   28.2579    0.0000 </r>
       <r>   28.2580    0.0000 </r>
       <r>   28.4093    0.0000 </r>
       <r>   28.5971    0.0000 </r>
       <r>   28.8343    0.0000 </r>
       <r>   28.9466    0.0000 </r>
       <r>   29.2979    0.0000 </r>
       <r>   29.2982    0.0000 </r>
       <r>   29.5431    0.0000 </r>
       <r>   29.6864    0.0000 </r>
       <r>   29.9566    0.0000 </r>
       <r>   30.0521    0.0000 </r>
       <r>   30.0521    0.0000 </r>
       <r>   30.1919    0.0000 </r>
       <r>   30.5435    0.0000 </r>
       <r>   30.5794    0.0000 </r>
       <r>   30.8491    0.0000 </r>
       <r>   30.8493    0.0000 </r>
       <r>   30.8706    0.0000 </r>
       <r>   30.9570    0.0000 </r>
       <r>   30.9950    0.0000 </r>
       <r>   31.0672    0.0000 </r>
       <r>   31.2925    0.0000 </r>
       <r>   31.3193    0.0000 </r>
       <r>   31.3976    0.0000 </r>
       <r>   31.4594    0.0000 </r>
       <r>   31.7271    0.0000 </r>
       <r>   31.7272    0.0000 </r>
       <r>   31.9564    0.0000 </r>
       <r>   31.9565    0.0000 </r>
       <r>   31.9845    0.0000 </r>
       <r>   32.0486    0.0000 </r>
       <r>   32.0742    0.0000 </r>
       <r>   32.3411    0.0000 </r>
       <r>   32.3417    0.0000 </r>
       <r>   32.7964    0.0000 </r>
       <r>   32.9186    0.0000 </r>
       <r>   32.9295    0.0000 </r>
      </set>
      <set comment="kpoint 4">
       <r>   -5.3419    1.0000 </r>
       <r>   -4.2733    1.0000 </r>
       <r>   -3.6896    1.0000 </r>
       <r>   -3.3117    1.0000 </r>
       <r>   -2.8434    1.0000 </r>
       <r>   -2.2659    1.0000 </r>
       <r>   -2.2483    1.0000 </r>
       <r>   -2.1714    1.0000 </r>
       <r>   -2.1714    1.0000 </r>
       <r>   -1.9326    1.0000 </r>
       <r>   -1.9324    1.0000 </r>
       <r>   -1.7755    1.0000 </r>
       <r>   -1.6503    1.0000 </r>
       <r>   -1.6092    1.0000 </r>
       <r>   -1.6091    1.0000 </r>
       <r>   -1.5656    1.0000 </r>
       <r>   -1.5655    1.0000 </r>
       <r>   -1.5306    1.0000 </r>
       <r>   -1.3313    1.0000 </r>
       <r>   -1.3313    1.0000 </r>
       <r>   -1.2646    1.0000 </r>
       <r>   -1.1348    1.0000 </r>
       <r>   -1.1347    1.0000 </r>
       <r>   -1.0640    1.0000 </r>
       <r>   -1.0443    1.0000 </r>
       <r>   -1.0443    1.0000 </r>
       <r>   -1.0432    1.0000 </r>
       <r>   -0.9000    1.0000 </r>
       <r>   -0.8991    1.0000 </r>
       <r>   -0.8986    1.0000 </r>
       <r>   -0.7811    1.0000 </r>
       <r>   -0.7630    1.0000 </r>
       <r>   -0.7379    1.0000 </r>
       <r>   -0.7375    1.0000 </r>
       <r>   -0.7181    1.0000 </r>
       <r>   -0.5944    1.0000 </r>
       <r>   -0.5943    1.0000 </r>
       <r>   -0.5733    1.0000 </r>
       <r>   -0.4916    1.0000 </r>
       <r>   -0.4911    1.0000 </r>
       <r>   -0.4906    1.0000 </r>
       <r>   -0.4806    1.0000 </r>
       <r>   -0.3790    1.0000 </r>
       <r>   -0.3790    1.0000 </r>
       <r>   -0.3558    1.0000 </r>
       <r>   -0.3431    1.0000 </r>
       <r>   -0.3390    1.0000 </r>
       <r>   -0.3218    1.0000 </r>
       <r>   -0.2295    1.0000 </r>
       <r>   -0.2271    1.0000 </r>
       <r>   -0.2137    1.0000 </r>
       <r>   -0.2136    1.0000 </r>
       <r>   -0.1643    1.0000 </r>
       <r>   -0.0870    1.0000 </r>
       <r>   -0.0868    1.0000 </r>
       <r>   -0.0866    1.0000 </r>
       <r>   -0.0059    1.0000 </r>
       <r>    0.0388    1.0000 </r>
       <r>    0.0513    1.0000 </r>
       <r>    0.0520    1.0000 </r>
       <r>    0.0638    1.0000 </r>
       <r>    0.0943    1.0000 </r>
       <r>    0.1178    1.0000 </r>
       <r>    0.1181    1.0000 </r>
       <r>    0.1386    1.0000 </r>
       <r>    0.1694    1.0000 </r>
       <r>    0.1743    1.0000 </r>
       <r>    0.1757    1.0000 </r>
       <r>    0.2202    1.0000 </r>
       <r>    0.3121    1.0000 </r>
       <r>    0.3339    1.0000 </r>
       <r>    0.3595    1.0000 </r>
       <r>    0.3595    1.0000 </r>
       <r>    0.3740    1.0000 </r>
       <r>    0.4052    1.0000 </r>
       <r>    0.4749    1.0000 </r>
       <r>    0.5147    1.0000 </r>
       <r>    0.5148    1.0000 </r>
       <r>    0.5179    1.0000 </r>
       <r>    0.5371    1.0000 </r>
       <r>    0.6207    1.0000 </r>
       <r>    0.6228    1.0000 </r>
       <r>    0.6393    1.0000 </r>
       <r>    0.6847    1.0000 </r>
       <r>    0.6974    1.0000 </r>
       <r>    0.7294    1.0000 </r>
       <r>    0.7295    1.0000 </r>
       <r>    0.8143    1.0000 </r>
       <r>    0.8374    1.0000 </r>
       <r>    0.8374    1.0000 </r>
       <r>    1.0831    1.0000 </r>
       <r>    1.3580    1.0000 </r>
       <r>    1.3580    1.0000 </r>
       <r>    1.3912    1.0000 </r>
       <r>    1.5881    1.0000 </r>
       <r>    1.6345    1.0000 </r>
       <r>    1.6345    1.0000 </r>
       <r>    1.8110    1.0000 </r>
       <r>    1.8460    1.0000 </r>
       <r>    1.8657    1.0000 </r>
       <r>    1.8657    1.0000 </r>
       <r>    1.9854    1.0000 </r>
       <r>    1.9855    1.0000 </r>
       <r>    2.2117    1.0000 </r>
       <r>    2.3475    0.9242 </r>
       <r>    2.4158    0.3092 </r>
       <r>    2.4328    0.1636 </r>
       <r>    2.4674    0.0251 </r>
       <r>    2.4674    0.0251 </r>
       <r>    3.0051    0.0000 </r>
       <r>    3.2389    0.0000 </r>
       <r>    3.5656    0.0000 </r>
       <r>    3.5656    0.0000 </r>
       <r>    3.8866    0.0000 </r>
       <r>    3.8866    0.0000 </r>
       <r>    4.6147    0.0000 </r>
       <r>    4.9003    0.0000 </r>
       <r>    5.3429    0.0000 </r>
       <r>    5.3433    0.0000 </r>
       <r>    6.8449    0.0000 </r>
       <r>    7.0962    0.0000 </r>
       <r>    7.0967    0.0000 </r>
       <r>    7.4043    0.0000 </r>
       <r>    7.9943    0.0000 </r>
       <r>    7.9944    0.0000 </r>
       <r>    8.8150    0.0000 </r>
       <r>    8.9820    0.0000 </r>
       <r>    9.0640    0.0000 </r>
       <r>    9.0640    0.0000 </r>
       <r>    9.2253    0.0000 </r>
       <r>    9.4854    0.0000 </r>
       <r>    9.4859    0.0000 </r>
       <r>   10.2576    0.0000 </r>
       <r>   10.3905    0.0000 </r>
       <r>   10.3909    0.0000 </r>
       <r>   10.7166    0.0000 </r>
       <r>   11.0519    0.0000 </r>
       <r>   11.1395    0.0000 </r>
       <r>   11.1396    0.0000 </r>
       <r>   11.8047    0.0000 </r>
       <r>   11.8048    0.0000 </r>
       <r>   11.9949    0.0000 </r>
       <r>   11.9949    0.0000 </r>
       <r>   12.1305    0.0000 </r>
       <r>   12.3238    0.0000 </r>
       <r>   12.5033    0.0000 </r>
       <r>   12.5034    0.0000 </r>
       <r>   12.7828    0.0000 </r>
       <r>   12.8480    0.0000 </r>
       <r>   13.2727    0.0000 </r>
       <r>   13.2731    0.0000 </r>
       <r>   13.5829    0.0000 </r>
       <r>   13.5832    0.0000 </r>
       <r>   13.7366    0.0000 </r>
       <r>   13.7369    0.0000 </r>
       <r>   14.0965    0.0000 </r>
       <r>   14.1859    0.0000 </r>
       <r>   14.1863    0.0000 </r>
       <r>   14.3725    0.0000 </r>
       <r>   14.9219    0.0000 </r>
       <r>   15.4243    0.0000 </r>
       <r>   15.4244    0.0000 </r>
       <r>   15.6717    0.0000 </r>
       <r>   15.6719    0.0000 </r>
       <r>   16.0655    0.0000 </r>
       <r>   16.5779    0.0000 </r>
       <r>   16.7481    0.0000 </r>
       <r>   16.7481    0.0000 </r>
       <r>   16.9529    0.0000 </r>
       <r>   17.1034    0.0000 </r>
       <r>   17.1927    0.0000 </r>
       <r>   17.1929    0.0000 </r>
       <r>   17.4512    0.0000 </r>
       <r>   17.4514    0.0000 </r>
       <r>   17.5059    0.0000 </r>
       <r>   17.6723    0.0000 </r>
       <r>   17.6724    0.0000 </r>
       <r>   17.7060    0.0000 </r>
       <r>   18.0342    0.0000 </r>
       <r>   18.1726    0.0000 </r>
       <r>   18.8732    0.0000 </r>
       <r>   19.0545    0.0000 </r>
       <r>   19.0917    0.0000 </r>
       <r>   19.1490    0.0000 </r>
       <r>   19.1494    0.0000 </r>
       <r>   19.3234    0.0000 </r>
       <r>   19.3236    0.0000 </r>
       <r>   19.4025    0.0000 </r>
       <r>   19.4028    0.0000 </r>
       <r>   19.9668    0.0000 </r>
       <r>   20.1865    0.0000 </r>
       <r>   20.3663    0.0000 </r>
       <r>   20.4485    0.0000 </r>
       <r>   21.0091    0.0000 </r>
       <r>   21.0094    0.0000 </r>
       <r>   21.5165    0.0000 </r>
       <r>   21.6340    0.0000 </r>
       <r>   21.6658    0.0000 </r>
       <r>   21.8727    0.0000 </r>
       <r>   21.8733    0.0000 </r>
       <r>   21.9215    0.0000 </r>
       <r>   21.9220    0.0000 </r>
       <r>   21.9732    0.0000 </r>
       <r>   22.2831    0.0000 </r>
       <r>   22.4169    0.0000 </r>
       <r>   22.6017    0.0000 </r>
       <r>   22.6629    0.0000 </r>
       <r>   22.6632    0.0000 </r>
       <r>   22.6659    0.0000 </r>
       <r>   22.6690    0.0000 </r>
       <r>   22.9787    0.0000 </r>
       <r>   22.9900    0.0000 </r>
       <r>   23.0926    0.0000 </r>
       <r>   23.0931    0.0000 </r>
       <r>   23.2566    0.0000 </r>
       <r>   23.2569    0.0000 </r>
       <r>   23.3656    0.0000 </r>
       <r>   23.4070    0.0000 </r>
       <r>   23.4074    0.0000 </r>
       <r>   23.5894    0.0000 </r>
       <r>   23.8474    0.0000 </r>
       <r>   23.9905    0.0000 </r>
       <r>   24.2742    0.0000 </r>
       <r>   24.3520    0.0000 </r>
       <r>   24.8639    0.0000 </r>
       <r>   25.0204    0.0000 </r>
       <r>   25.2507    0.0000 </r>
       <r>   25.4195    0.0000 </r>
       <r>   25.8749    0.0000 </r>
       <r>   25.9549    0.0000 </r>
       <r>   26.2073    0.0000 </r>
       <r>   26.2075    0.0000 </r>
       <r>   26.3374    0.0000 </r>
       <r>   26.4023    0.0000 </r>
       <r>   26.4024    0.0000 </r>
       <r>   26.4040    0.0000 </r>
       <r>   26.4894    0.0000 </r>
       <r>   26.4897    0.0000 </r>
       <r>   26.5830    0.0000 </r>
       <r>   27.0225    0.0000 </r>
       <r>   27.0228    0.0000 </r>
       <r>   27.1562    0.0000 </r>
       <r>   27.2750    0.0000 </r>
       <r>   27.3997    0.0000 </r>
       <r>   27.3997    0.0000 </r>
       <r>   27.8027    0.0000 </r>
       <r>   27.9851    0.0000 </r>
       <r>   28.2147    0.0000 </r>
       <r>   28.2242    0.0000 </r>
       <r>   28.2884    0.0000 </r>
       <r>   28.2887    0.0000 </r>
       <r>   28.4969    0.0000 </r>
       <r>   28.9120    0.0000 </r>
       <r>   28.9121    0.0000 </r>
       <r>   29.4640    0.0000 </r>
       <r>   29.5517    0.0000 </r>
       <r>   29.5519    0.0000 </r>
       <r>   29.5878    0.0000 </r>
       <r>   29.7258    0.0000 </r>
       <r>   29.9062    0.0000 </r>
       <r>   30.0141    0.0000 </r>
       <r>   30.0145    0.0000 </r>
       <r>   30.3169    0.0000 </r>
       <r>   30.6453    0.0000 </r>
       <r>   30.7101    0.0000 </r>
       <r>   30.8313    0.0000 </r>
       <r>   31.1063    0.0000 </r>
       <r>   31.1066    0.0000 </r>
       <r>   31.2160    0.0000 </r>
       <r>   31.3685    0.0000 </r>
       <r>   31.4397    0.0000 </r>
       <r>   31.4777    0.0000 </r>
       <r>   31.5503    0.0000 </r>
       <r>   31.6612    0.0000 </r>
       <r>   31.6614    0.0000 </r>
       <r>   31.7205    0.0000 </r>
       <r>   31.7707    0.0000 </r>
       <r>   31.9029    0.0000 </r>
       <r>   31.9031    0.0000 </r>
       <r>   32.2230    0.0000 </r>
       <r>   32.3038    0.0000 </r>
       <r>   32.7204    0.0000 </r>
       <r>   32.7206    0.0000 </r>
       <r>   32.8686    0.0000 </r>
       <r>   33.0606    0.0000 </r>
       <r>   33.0762    0.0000 </r>
       <r>   33.3451    0.0000 </r>
       <r>   33.3502    0.0000 </r>
      </set>
      <set comment="kpoint 5">
       <r>   -4.5605    1.0000 </r>
       <r>   -4.5601    1.0000 </r>
       <r>   -3.5558    1.0000 </r>
       <r>   -3.5557    1.0000 </r>
       <r>   -2.7198    1.0000 </r>
       <r>   -2.7197    1.0000 </r>
       <r>   -2.1077    1.0000 </r>
       <r>   -2.1077    1.0000 </r>
       <r>   -1.8947    1.0000 </r>
       <r>   -1.8946    1.0000 </r>
       <r>   -1.8410    1.0000 </r>
       <r>   -1.8408    1.0000 </r>
       <r>   -1.6019    1.0000 </r>
       <r>   -1.6018    1.0000 </r>
       <r>   -1.4547    1.0000 </r>
       <r>   -1.4544    1.0000 </r>
       <r>   -1.4237    1.0000 </r>
       <r>   -1.4236    1.0000 </r>
       <r>   -1.3120    1.0000 </r>
       <r>   -1.3118    1.0000 </r>
       <r>   -1.2195    1.0000 </r>
       <r>   -1.2195    1.0000 </r>
       <r>   -1.1223    1.0000 </r>
       <r>   -1.1223    1.0000 </r>
       <r>   -0.9967    1.0000 </r>
       <r>   -0.9965    1.0000 </r>
       <r>   -0.9711    1.0000 </r>
       <r>   -0.9711    1.0000 </r>
       <r>   -0.9338    1.0000 </r>
       <r>   -0.9336    1.0000 </r>
       <r>   -0.8147    1.0000 </r>
       <r>   -0.8145    1.0000 </r>
       <r>   -0.7259    1.0000 </r>
       <r>   -0.7251    1.0000 </r>
       <r>   -0.6479    1.0000 </r>
       <r>   -0.6476    1.0000 </r>
       <r>   -0.6238    1.0000 </r>
       <r>   -0.6238    1.0000 </r>
       <r>   -0.5296    1.0000 </r>
       <r>   -0.5295    1.0000 </r>
       <r>   -0.4489    1.0000 </r>
       <r>   -0.4489    1.0000 </r>
       <r>   -0.4128    1.0000 </r>
       <r>   -0.4123    1.0000 </r>
       <r>   -0.3551    1.0000 </r>
       <r>   -0.3550    1.0000 </r>
       <r>   -0.3472    1.0000 </r>
       <r>   -0.3471    1.0000 </r>
       <r>   -0.2972    1.0000 </r>
       <r>   -0.2970    1.0000 </r>
       <r>   -0.2531    1.0000 </r>
       <r>   -0.2522    1.0000 </r>
       <r>   -0.2210    1.0000 </r>
       <r>   -0.2207    1.0000 </r>
[...]
       <r>   26.5611    0.0000 </r>
       <r>   26.5615    0.0000 </r>
       <r>   26.9501    0.0000 </r>
       <r>   26.9513    0.0000 </r>
       <r>   27.0489    0.0000 </r>
       <r>   27.0498    0.0000 </r>
       <r>   27.0665    0.0000 </r>
       <r>   27.0677    0.0000 </r>
       <r>   28.2758    0.0000 </r>
       <r>   28.2770    0.0000 </r>
       <r>   28.7081    0.0000 </r>
       <r>   28.7085    0.0000 </r>
       <r>   28.8243    0.0000 </r>
       <r>   28.8245    0.0000 </r>
       <r>   28.8556    0.0000 </r>
       <r>   28.8556    0.0000 </r>
       <r>   28.9256    0.0000 </r>
       <r>   28.9257    0.0000 </r>
       <r>   29.1875    0.0000 </r>
       <r>   29.1879    0.0000 </r>
       <r>   29.2555    0.0000 </r>
       <r>   29.2560    0.0000 </r>
       <r>   29.4193    0.0000 </r>
       <r>   29.4194    0.0000 </r>
       <r>   30.3505    0.0000 </r>
       <r>   30.3507    0.0000 </r>
       <r>   30.7469    0.0000 </r>
       <r>   30.7478    0.0000 </r>
       <r>   30.8800    0.0000 </r>
       <r>   30.8803    0.0000 </r>
       <r>   31.5294    0.0000 </r>
       <r>   31.5303    0.0000 </r>
       <r>   31.9813    0.0000 </r>
       <r>   31.9816    0.0000 </r>
       <r>   32.1246    0.0000 </r>
       <r>   32.1259    0.0000 </r>
       <r>   32.2245    0.0000 </r>
       <r>   32.2245    0.0000 </r>
       <r>   32.3351    0.0000 </r>
       <r>   32.3354    0.0000 </r>
       <r>   32.5050    0.0000 </r>
       <r>   32.5054    0.0000 </r>
       <r>   32.5890    0.0000 </r>
       <r>   32.5891    0.0000 </r>
       <r>   32.6770    0.0000 </r>
       <r>   32.6770    0.0000 </r>
       <r>   32.9850    0.0000 </r>
       <r>   32.9855    0.0000 </r>
       <r>   33.0650    0.0000 </r>
       <r>   33.0656    0.0000 </r>
       <r>   33.1518    0.0000 </r>
       <r>   33.1581    0.0000 </r>
      </set>
     </set>
    </set>
   </array>
  </eigenvalues>
  <separator name="orbital magnetization" >
   <v name="MAGDIPOLOUT">      0.00000000      0.00000000      0.00000000</v>
  </separator>
  <dos>
   <i name="efermi">      2.39815248 </i>
   <total>
    <array>
     <dimension dim="1">gridpoints</dimension>
     <dimension dim="2">spin</dimension>
     <field>energy</field>
     <field>total</field>
     <field>integrated</field>
     <set>
      <set comment="spin 1">
       <r>    -8.4339     0.0000     0.0000 </r>
       <r>    -8.2874     0.0000     0.0000 </r>
       <r>    -8.1408     0.0000     0.0000 </r>
       <r>    -7.9942     0.0000     0.0000 </r>
       <r>    -7.8476     0.0000     0.0000 </r>
       <r>    -7.7010     0.0000     0.0000 </r>
       <r>    -7.5544     0.0000     0.0000 </r>
       <r>    -7.4079     0.0000     0.0000 </r>
       <r>    -7.2613     0.0000     0.0000 </r>
       <r>    -7.1147     0.0000     0.0000 </r>
       <r>    -6.9681     0.0000     0.0000 </r>
       <r>    -6.8215     0.0000     0.0000 </r>
       <r>    -6.6749     0.0000     0.0000 </r>
       <r>    -6.5284     0.0009     0.0001 </r>
       <r>    -6.3818     0.2249     0.0331 </r>
       <r>    -6.2352     1.2442     0.2155 </r>
       <r>    -6.0886     0.3081     0.2606 </r>
       <r>    -5.9420     1.5913     0.4939 </r>
       <r>    -5.7954     0.6812     0.5937 </r>
       <r>    -5.6488     0.0538     0.6016 </r>
       <r>    -5.5023     2.4602     0.9623 </r>
       <r>    -5.3557     0.5398     1.0414 </r>
       <r>    -5.2091     1.6064     1.2769 </r>
       <r>    -5.0625     0.7068     1.3805 </r>
       <r>    -4.9159     2.8938     1.8047 </r>
       <r>    -4.7693     3.4432     2.3094 </r>
       <r>    -4.6228     0.0712     2.3198 </r>
       <r>    -4.4762     3.0493     2.7668 </r>
       <r>    -4.3296     0.8411     2.8901 </r>
       <r>    -4.1830     4.1963     3.5052 </r>
       <r>    -4.0364     2.5936     3.8854 </r>
       <r>    -3.8898     3.7121     4.4295 </r>
       <r>    -3.7433     3.7483     4.9789 </r>
       <r>    -3.5967     1.3804     5.1813 </r>
       <r>    -3.4501     4.3868     5.8243 </r>
       <r>    -3.3035     4.1131     6.4272 </r>
       <r>    -3.1569     5.4350     7.2239 </r>
       <r>    -3.0103     3.5539     7.7449 </r>
       <r>    -2.8638     5.8386     8.6007 </r>
       <r>    -2.7172     3.4768     9.1104 </r>
       <r>    -2.5706    11.7182    10.8281 </r>
       <r>    -2.4240     8.9972    12.1469 </r>
       <r>    -2.2774    11.9919    13.9047 </r>
       <r>    -2.1308    17.3369    16.4461 </r>
       <r>    -1.9842    19.5546    19.3125 </r>
       <r>    -1.8377    19.6545    22.1935 </r>
       <r>    -1.6911    34.0628    27.1866 </r>
       <r>    -1.5445    32.1793    31.9035 </r>
       <r>    -1.3979    38.2201    37.5060 </r>
       <r>    -1.2513    32.1536    42.2192 </r>
       <r>    -1.1047    32.5546    46.9912 </r>
       <r>    -0.9582    47.7474    53.9902 </r>
       <r>    -0.8116    50.0416    61.3255 </r>
       <r>    -0.6650    54.2642    69.2798 </r>
       <r>    -0.5184    55.0669    77.3517 </r>
       <r>    -0.3718    78.4814    88.8558 </r>
       <r>    -0.2252    80.7925   100.6987 </r>
       <r>    -0.0787    61.4093   109.7003 </r>
       <r>     0.0679    56.5030   117.9828 </r>
       <r>     0.2145    71.2486   128.4267 </r>
       <r>     0.3611    72.5969   139.0683 </r>
       <r>     0.5077    77.0102   150.3567 </r>
       <r>     0.6543    77.0351   161.6489 </r>
       <r>     0.8009    72.1532   172.2254 </r>
       <r>     0.9474    32.5570   176.9977 </r>
       <r>     1.0940    26.6738   180.9077 </r>
       <r>     1.2406    18.5962   183.6336 </r>
       <r>     1.3872    28.9355   187.8751 </r>
       <r>     1.5338    22.7198   191.2054 </r>
       <r>     1.6804    19.0768   194.0018 </r>
       <r>     1.8269    25.1515   197.6886 </r>
       <r>     1.9735    16.4030   200.0930 </r>
       <r>     2.1201    27.7341   204.1584 </r>
       <r>     2.2667    27.4872   208.1875 </r>
       <r>     2.4133    28.0496   212.2992 </r>
       <r>     2.5599    21.2517   215.4143 </r>
       <r>     2.7064    12.0767   217.1846 </r>
       <r>     2.8530    11.6932   218.8986 </r>
       <r>     2.9996     5.2238   219.6643 </r>
       <r>     3.1462     8.4572   220.9040 </r>
       <r>     3.2928     7.7911   222.0461 </r>
       <r>     3.4394     6.3755   222.9806 </r>
       <r>     3.5859    10.8850   224.5762 </r>
       <r>     3.7325     7.7284   225.7091 </r>
       <r>     3.8791     5.1677   226.4666 </r>
       <r>     4.0257     7.5365   227.5713 </r>
       <r>     4.1723     0.6451   227.6659 </r>
       <r>     4.3189    10.7706   229.2446 </r>
       <r>     4.4655     8.6268   230.5092 </r>
       <r>     4.6120     4.8960   231.2269 </r>
       <r>     4.7586     4.0685   231.8232 </r>
       <r>     4.9052     1.8579   232.0956 </r>
       <r>     5.0518     7.9343   233.2586 </r>
       <r>     5.1984     4.9643   233.9863 </r>
       <r>     5.3450    11.2284   235.6322 </r>
       <r>     5.4915     6.7520   236.6220 </r>
       <r>     5.6381     2.7135   237.0197 </r>
       <r>     5.7847     2.2762   237.3534 </r>
       <r>     5.9313     1.6381   237.5935 </r>
       <r>     6.0779     2.7001   237.9893 </r>
       <r>     6.2245     7.7466   239.1248 </r>
       <r>     6.3710     7.5838   240.2365 </r>
       <r>     6.5176     5.8010   241.0868 </r>
       <r>     6.6642     1.9607   241.3742 </r>
       <r>     6.8108     1.7772   241.6347 </r>
       <r>     6.9574     6.7596   242.6256 </r>
       <r>     7.1040     5.3126   243.4043 </r>
       <r>     7.2506     6.9413   244.4218 </r>
       <r>     7.3971     7.8195   245.5680 </r>
       <r>     7.5437     7.2099   246.6249 </r>
       <r>     7.6903     3.4427   247.1295 </r>
       <r>     7.8369     4.5478   247.7962 </r>
       <r>     7.9835     7.3349   248.8714 </r>
       <r>     8.1301     5.3699   249.6585 </r>
       <r>     8.2766     9.8812   251.1069 </r>
       <r>     8.4232    11.9648   252.8608 </r>
       <r>     8.5698    10.3669   254.3804 </r>
       <r>     8.7164     8.5078   255.6275 </r>
       <r>     8.8630    11.3447   257.2905 </r>
       <r>     9.0096     5.0447   258.0299 </r>
       <r>     9.1561    10.6238   259.5872 </r>
       <r>     9.3027     8.5848   260.8456 </r>
       <r>     9.4493     7.9397   262.0094 </r>
       <r>     9.5959     7.6974   263.1378 </r>
       <r>     9.7425     9.3956   264.5150 </r>
       <r>     9.8891     9.0542   265.8422 </r>
       <r>    10.0357     6.3622   266.7748 </r>
       <r>    10.1822     6.9282   267.7904 </r>
       <r>    10.3288     9.5540   269.1908 </r>
       <r>    10.4754     7.8371   270.3396 </r>
       <r>    10.6220     5.6354   271.1657 </r>
       <r>    10.7686     7.1807   272.2183 </r>
       <r>    10.9152     9.0403   273.5434 </r>
       <r>    11.0617     9.1294   274.8816 </r>
       <r>    11.2083    10.6921   276.4489 </r>
       <r>    11.3549    13.2710   278.3943 </r>
       <r>    11.5015     6.7788   279.3879 </r>
       <r>    11.6481     8.4859   280.6318 </r>
       <r>    11.7947     6.2450   281.5472 </r>
       <r>    11.9412     8.4512   282.7860 </r>
       <r>    12.0878    16.5124   285.2065 </r>
       <r>    12.2344    10.1458   286.6937 </r>
       <r>    12.3810    11.5329   288.3842 </r>
       <r>    12.5276    10.3805   289.9059 </r>
       <r>    12.6742    10.6084   291.4609 </r>
       <r>    12.8207     8.9465   292.7723 </r>
       <r>    12.9673     9.9712   294.2339 </r>
       <r>    13.1139     9.2556   295.5906 </r>
       <r>    13.2605    17.4947   298.1551 </r>
       <r>    13.4071     9.9202   299.6092 </r>
       <r>    13.5537     8.2859   300.8238 </r>
       <r>    13.7003    15.7028   303.1256 </r>
       <r>    13.8468    15.3135   305.3703 </r>
       <r>    13.9934    13.1105   307.2921 </r>
       <r>    14.1400     4.6990   307.9809 </r>
       <r>    14.2866    11.1718   309.6185 </r>
       <r>    14.4332     7.2264   310.6778 </r>
       <r>    14.5798     9.8682   312.1243 </r>
       <r>    14.7263     8.3725   313.3516 </r>
       <r>    14.8729    15.1195   315.5678 </r>
       <r>    15.0195     9.6063   316.9760 </r>
       <r>    15.1661    10.1241   318.4600 </r>
       <r>    15.3127    14.6424   320.6064 </r>
       <r>    15.4593    17.5379   323.1771 </r>
       <r>    15.6058    14.2517   325.2662 </r>
       <r>    15.7524    13.5241   327.2486 </r>
       <r>    15.8990     5.6125   328.0713 </r>
       <r>    16.0456    13.6293   330.0692 </r>
       <r>    16.1922    12.3549   331.8802 </r>
       <r>    16.3388     6.5739   332.8438 </r>
       <r>    16.4854    12.1019   334.6178 </r>
       <r>    16.6319    13.4453   336.5886 </r>
       <r>    16.7785    15.9067   338.9203 </r>
       <r>    16.9251    15.2071   341.1494 </r>
       <r>    17.0717    15.2219   343.3807 </r>
       <r>    17.2183    12.4106   345.1999 </r>
       <r>    17.3649    14.2836   347.2937 </r>
       <r>    17.5114     9.5909   348.6995 </r>
       <r>    17.6580    11.7538   350.4225 </r>
       <r>    17.8046    16.7139   352.8725 </r>
       <r>    17.9512    12.2866   354.6735 </r>
       <r>    18.0978    15.5212   356.9487 </r>
       <r>    18.2444    10.0855   358.4270 </r>
       <r>    18.3909    12.8419   360.3094 </r>
       <r>    18.5375    11.8361   362.0444 </r>
       <r>    18.6841     9.3437   363.4141 </r>
       <r>    18.8307    17.9764   366.0491 </r>
       <r>    18.9773     6.0999   366.9433 </r>
       <r>    19.1239    12.0143   368.7044 </r>
       <r>    19.2704    16.5271   371.1270 </r>
       <r>    19.4170    13.7184   373.1379 </r>
       <r>    19.5636    11.7588   374.8616 </r>
       <r>    19.7102    15.7970   377.1771 </r>
       <r>    19.8568     8.0975   378.3641 </r>
       <r>    20.0034     6.9927   379.3891 </r>
       <r>    20.1500     7.4379   380.4794 </r>
       <r>    20.2965    11.5337   382.1701 </r>
       <r>    20.4431     6.0025   383.0499 </r>
       <r>    20.5897    14.2997   385.1461 </r>
       <r>    20.7363    18.4796   387.8549 </r>
       <r>    20.8829     6.3152   388.7806 </r>
       <r>    21.0295    13.1885   390.7138 </r>
       <r>    21.1760    11.7519   392.4365 </r>
       <r>    21.3226    16.6304   394.8742 </r>
       <r>    21.4692    15.7452   397.1822 </r>
       <r>    21.6158     8.2689   398.3943 </r>
       <r>    21.7624    13.5898   400.3863 </r>
       <r>    21.9090     9.2120   401.7367 </r>
       <r>    22.0555    13.2410   403.6776 </r>
       <r>    22.2021    20.3012   406.6534 </r>
       <r>    22.3487    15.7841   408.9671 </r>
       <r>    22.4953    10.2048   410.4630 </r>
       <r>    22.6419    16.4965   412.8811 </r>
       <r>    22.7885    13.6194   414.8775 </r>
       <r>    22.9351    11.2918   416.5327 </r>
       <r>    23.0816    12.1966   418.3205 </r>
       <r>    23.2282    19.7393   421.2140 </r>
       <r>    23.3748    13.6034   423.2080 </r>
       <r>    23.5214    18.8487   425.9709 </r>
       <r>    23.6680    17.3327   428.5116 </r>
       <r>    23.8146    15.4097   430.7704 </r>
       <r>    23.9611    16.3856   433.1723 </r>
       <r>    24.1077    15.9641   435.5124 </r>
       <r>    24.2543    17.7348   438.1121 </r>
       <r>    24.4009    13.1103   440.0338 </r>
       <r>    24.5475    13.0843   441.9518 </r>
       <r>    24.6941    11.0759   443.5753 </r>
       <r>    24.8406    13.9542   445.6208 </r>
       <r>    24.9872    11.9481   447.3722 </r>
       <r>    25.1338    21.0383   450.4560 </r>
       <r>    25.2804    22.0410   453.6869 </r>
       <r>    25.4270    15.7628   455.9975 </r>
       <r>    25.5736    17.3450   458.5400 </r>
       <r>    25.7202    15.6210   460.8298 </r>
       <r>    25.8667    12.8596   462.7148 </r>
       <r>    26.0133    15.0504   464.9209 </r>
       <r>    26.1599    17.7159   467.5178 </r>
       <r>    26.3065    13.8671   469.5505 </r>
       <r>    26.4531    16.9479   472.0348 </r>
       <r>    26.5997    16.7385   474.4884 </r>
       <r>    26.7462     8.1932   475.6894 </r>
       <r>    26.8928    10.6751   477.2542 </r>
       <r>    27.0394    17.6561   479.8423 </r>
       <r>    27.1860    17.4941   482.4067 </r>
       <r>    27.3326     7.7573   483.5438 </r>
       <r>    27.4792    19.0289   486.3331 </r>
       <r>    27.6257    12.5267   488.1693 </r>
       <r>    27.7723    11.0226   489.7851 </r>
       <r>    27.9189    14.8933   491.9682 </r>
       <r>    28.0655    11.3735   493.6354 </r>
       <r>    28.2121    12.7196   495.4998 </r>
       <r>    28.3587    17.8638   498.1184 </r>
       <r>    28.5052    15.8847   500.4468 </r>
       <r>    28.6518    15.1514   502.6678 </r>
       <r>    28.7984    15.7619   504.9783 </r>
       <r>    28.9450    16.8912   507.4542 </r>
       <r>    29.0916    14.9639   509.6477 </r>
       <r>    29.2382    10.6393   511.2072 </r>
       <r>    29.3848    11.7471   512.9292 </r>
       <r>    29.5313    14.7816   515.0959 </r>
       <r>    29.6779    23.2718   518.5072 </r>
       <r>    29.8245    17.7184   521.1044 </r>
       <r>    29.9711    17.0865   523.6090 </r>
       <r>    30.1177    22.7896   526.9496 </r>
       <r>    30.2643    14.4056   529.0613 </r>
       <r>    30.4108    12.5397   530.8994 </r>
       <r>    30.5574    14.0397   532.9574 </r>
       <r>    30.7040    13.2571   534.9007 </r>
       <r>    30.8506    10.7482   536.4762 </r>
       <r>    30.9972    15.6223   538.7662 </r>
       <r>    31.1438    18.7028   541.5077 </r>
       <r>    31.2903     7.1109   542.5500 </r>
       <r>    31.4369    21.9329   545.7651 </r>
       <r>    31.5835    22.5332   549.0681 </r>
       <r>    31.7301    18.8164   551.8263 </r>
       <r>    31.8767    16.0446   554.1782 </r>
       <r>    32.0233    19.3680   557.0172 </r>
       <r>    32.1699    19.3186   559.8490 </r>
       <r>    32.3164    11.7294   561.5683 </r>
       <r>    32.4630    12.9722   563.4699 </r>
       <r>    32.6096    16.9905   565.9604 </r>
       <r>    32.7562    12.7275   567.8260 </r>
       <r>    32.9028    14.0017   569.8785 </r>
       <r>    33.0494    17.3440   572.4208 </r>
       <r>    33.1959    13.8600   574.4525 </r>
       <r>    33.3425     1.4726   574.6683 </r>
       <r>    33.4891     4.1704   575.2796 </r>
       <r>    33.6357     4.9075   575.9990 </r>
       <r>    33.7823     0.0069   576.0000 </r>
       <r>    33.9289     0.0000   576.0000 </r>
       <r>    34.0754     0.0000   576.0000 </r>
       <r>    34.2220     0.0000   576.0000 </r>
       <r>    34.3686     0.0000   576.0000 </r>
       <r>    34.5152     0.0000   576.0000 </r>
       <r>    34.6618     0.0000   576.0000 </r>
       <r>    34.8084     0.0000   576.0000 </r>
       <r>    34.9550     0.0000   576.0000 </r>
       <r>    35.1015     0.0000   576.0000 </r>
       <r>    35.2481     0.0000   576.0000 </r>
       <r>    35.3947     0.0000   576.0000 </r>
       <r>    35.5413     0.0000   576.0000 </r>
      </set>
     </set>
    </array>
   </total>
  </dos>
 </calculation>
 <structure name="finalpos" >
  <crystal>
   <varray name="basis" >
    <v>       5.11281500       0.00000000       0.00000000 </v>
    <v>      -2.55640800       4.42782800       0.00000000 </v>
    <v>       0.00000000       0.00000000      18.34919384 </v>
   </varray>
   <i name="volume">    415.40126002 </i>
   <varray name="rec_basis" >
    <v>       0.19558697       0.11292220       0.00000000 </v>
    <v>       0.00000000       0.22584436       0.00000000 </v>
    <v>       0.00000000       0.00000000       0.05449831 </v>
   </varray>
  </crystal>
  <varray name="positions" >
   <v>       0.33336847       0.16670559       0.34068491 </v>
   <v>       0.33335513       0.66665358       0.34069624 </v>
   <v>       0.83332540       0.16666727       0.34068546 </v>
   <v>       0.83329081       0.66663686       0.34068167 </v>
   <v>       0.33333300       0.16666700       0.00000000 </v>
   <v>       0.33333300       0.66666700       0.00000000 </v>
   <v>       0.83333300       0.16666700       0.00000000 </v>
   <v>       0.83333300       0.66666700       0.00000000 </v>
   <v>       0.50000000       0.50000000       0.11375398 </v>
   <v>       0.50000000       0.00000000       0.11375398 </v>
   <v>       0.00000000       0.50000000       0.11375398 </v>
   <v>       0.00000000       0.00000000       0.11375398 </v>
   <v>       0.16672662       0.33334647       0.22777579 </v>
   <v>       0.16665985       0.83333880       0.22779558 </v>
   <v>       0.66662665       0.33336826       0.22779753 </v>
   <v>       0.66665045       0.83327002       0.22777588 </v>
   <v>       0.50002146       0.49998903       0.45291383 </v>
   <v>       0.49998890       0.00001982       0.45292266 </v>
   <v>       0.99997578       0.50001264       0.45290524 </v>
   <v>       0.00001137       0.99998344       0.45284330 </v>
  </varray>
  <varray name="selective"  type="logical" >
   <v type="logical" >  T  T  T </v>
   <v type="logical" >  T  T  T </v>
   <v type="logical" >  T  T  T </v>
   <v type="logical" >  T  T  T </v>
   <v type="logical" >  F  F  F </v>
   <v type="logical" >  F  F  F </v>
   <v type="logical" >  F  F  F </v>
   <v type="logical" >  F  F  F </v>
   <v type="logical" >  F  F  F </v>
   <v type="logical" >  F  F  F </v>
   <v type="logical" >  F  F  F </v>
   <v type="logical" >  F  F  F </v>
   <v type="logical" >  T  T  T </v>
   <v type="logical" >  T  T  T </v>
   <v type="logical" >  T  T  T </v>
   <v type="logical" >  T  T  T </v>
   <v type="logical" >  T  T  T </v>
   <v type="logical" >  T  T  T </v>
   <v type="logical" >  T  T  T </v>
   <v type="logical" >  T  T  T </v>
  </varray>
  <nose>
   <v>      -3.00000000       0.00000000       0.00010000       0.00010000 </v>
  </nose>
 </structure>
</modeling>
