unknown system                          
           1
     5.112815    0.000000    0.000000
    -2.556408    4.427828    0.000000
     0.000000    0.000000   18.349194
   Co   Cu
   4  16
Direct configuration=     1
   0.33336847  0.16670559  0.34068491
   0.33335513  0.66665358  0.34069624
   0.83332540  0.16666727  0.34068546
   0.83329081  0.66663686  0.34068167
   0.33333300  0.16666700  0.00000000
   0.33333300  0.66666700  0.00000000
   0.83333300  0.16666700  0.00000000
   0.83333300  0.66666700  0.00000000
   0.50000000  0.50000000  0.11375398
   0.50000000  0.00000000  0.11375398
   0.00000000  0.50000000  0.11375398
   0.00000000  0.00000000  0.11375398
   0.16672662  0.33334647  0.22777579
   0.16665985  0.83333880  0.22779558
   0.66662665  0.33336826  0.22779753
   0.66665045  0.83327002  0.22777588
   0.50002146  0.49998903  0.45291383
   0.49998890  0.00001982  0.45292266
   0.99997578  0.50001264  0.45290524
   0.00001137  0.99998344  0.45284330
